# vtk DataFile Version 4.0
hesp visualization file
ASCII
DATASET UNSTRUCTURED_GRID
POINTS 1 double
0.5 0.44025481 0.5
CELLS 0 0
CELL_TYPES 0
POINT_DATA 1
SCALARS m double
LOOKUP_TABLE default
1
SCALARS r double
LOOKUP_TABLE default
0.1
VECTORS v double
0 -0.31495135 0
