# vtk DataFile Version 4.0
hesp visualization file
ASCII
DATASET UNSTRUCTURED_GRID
POINTS 2 double
0.40888 0.55288 0.00288
0.59588 0.45288 0.00288
CELLS 0 0
CELL_TYPES 0
POINT_DATA 2
SCALARS m double
LOOKUP_TABLE default
1
1
SCALARS r double
LOOKUP_TABLE default
0.1
0.1
VECTORS v double
1.024 0.024 0.024
-0.976 0.024 0.024
VECTORS q double
1 0 0
1 0 0
