# vtk DataFile Version 4.0
hesp visualization file
ASCII
DATASET UNSTRUCTURED_GRID
POINTS 2 double
0.58808508 0.64490401 0.01152
0.43395492 0.37813599 0.01152
CELLS 0 0
CELL_TYPES 0
POINT_DATA 2
SCALARS m double
LOOKUP_TABLE default
1
1
SCALARS r double
LOOKUP_TABLE default
0.1
0.1
VECTORS v double
0.68273171 0.49248847 0.048
-0.58673171 -0.39648847 0.048
VECTORS q double
0.85943891 -0.53121002 0
0.85943891 -0.53121002 0
