# vtk DataFile Version 4.0
hesp visualization file
ASCII
DATASET UNSTRUCTURED_GRID
POINTS 2 double
0.46186529 0.55418189 0
0.53704202 0.4459244 0
CELLS 0 0
CELL_TYPES 0
POINT_DATA 2
SCALARS m double
LOOKUP_TABLE default
1
1
SCALARS r double
LOOKUP_TABLE default
0.1
0.1
VECTORS v double
0.68847595 0.34418332 0
-0.70570765 -0.3220203 0
VECTORS q double
0 0 0
0 0 0
