# vtk DataFile Version 4.0
hesp visualization file
ASCII
DATASET UNSTRUCTURED_GRID
POINTS 2 double
0.52704423 0.60098504 0.007605
0.48716577 0.41422496 0.007605
CELLS 0 0
CELL_TYPES 0
POINT_DATA 2
SCALARS m double
LOOKUP_TABLE default
1
1
SCALARS r double
LOOKUP_TABLE default
0.1
0.1
VECTORS v double
0.67373171 0.48348847 0.039
-0.59573171 -0.40548847 0.039
VECTORS q double
0.98955643 -0.15390581 0
0.98955643 -0.15390581 0
