# vtk DataFile Version 4.0
hesp visualization file
ASCII
DATASET UNSTRUCTURED_GRID
POINTS 2 double
0.22618 0.55018 0.00018
0.77318 0.45018 0.00018
CELLS 0 0
CELL_TYPES 0
POINT_DATA 2
SCALARS m double
LOOKUP_TABLE default
1
1
SCALARS r double
LOOKUP_TABLE default
0.1
0.1
VECTORS v double
1.006 0.006 0.006
-0.994 0.006 0.006
VECTORS q double
1 0 0
1 0 0
