# vtk DataFile Version 4.0
hesp visualization file
ASCII
DATASET UNSTRUCTURED_GRID
POINTS 2 double
0.79060033 0.734233 0
0.20839967 0.265767 0
CELLS 0 0
CELL_TYPES 0
POINT_DATA 2
SCALARS m double
LOOKUP_TABLE default
1
1
SCALARS r double
LOOKUP_TABLE default
0.1
0.1
VECTORS v double
0.50180951 0.22704878 0
-0.50180951 -0.22704878 0
