# vtk DataFile Version 4.0
hesp visualization file
ASCII
DATASET UNSTRUCTURED_GRID
POINTS 2 double
0.1 0.1 0
4.0019317e-322 0 0
CELLS 0 0
CELL_TYPES 0
POINT_DATA 2
SCALARS m double
LOOKUP_TABLE default
1
1
SCALARS r double
LOOKUP_TABLE default
1.0100553
0.61587179
VECTORS v double
-0.2793146 0.21094589 0
0.2793146 -0.21094589 0
