# vtk DataFile Version 4.0
hesp visualization file
ASCII
DATASET UNSTRUCTURED_GRID
POINTS 2 double
0.378205 0.552205 0.002205
0.625205 0.452205 0.002205
CELLS 0 0
CELL_TYPES 0
POINT_DATA 2
SCALARS m double
LOOKUP_TABLE default
1
1
SCALARS r double
LOOKUP_TABLE default
0.1
0.1
VECTORS v double
1.021 0.021 0.021
-0.979 0.021 0.021
VECTORS q double
1 0 0
1 0 0
