# vtk DataFile Version 4.0
hesp visualization file
ASCII
DATASET UNSTRUCTURED_GRID
POINTS 2 double
0.196045 0.550045 4.5e-05
0.803045 0.450045 4.5e-05
CELLS 0 0
CELL_TYPES 0
POINT_DATA 2
SCALARS m double
LOOKUP_TABLE default
1
1
SCALARS r double
LOOKUP_TABLE default
0.1
0.1
VECTORS v double
1.003 0.003 0.003
-0.997 0.003 0.003
VECTORS q double
1 0 0
1 0 0
