# vtk DataFile Version 4.0
hesp visualization file
ASCII
DATASET UNSTRUCTURED_GRID
POINTS 2 double
0.34762 0.55162 0.00162
0.65462 0.45162 0.00162
CELLS 0 0
CELL_TYPES 0
POINT_DATA 2
SCALARS m double
LOOKUP_TABLE default
1
1
SCALARS r double
LOOKUP_TABLE default
0.1
0.1
VECTORS v double
1.018 0.018 0.018
-0.982 0.018 0.018
VECTORS q double
1 0 0
1 0 0
