# vtk DataFile Version 4.0
hesp visualization file
ASCII
DATASET UNSTRUCTURED_GRID
POINTS 2 double
0.98475945 0.84620566 0
0.014240548 0.15379434 0
CELLS 0 0
CELL_TYPES 0
POINT_DATA 2
SCALARS m double
LOOKUP_TABLE default
1
1
SCALARS r double
LOOKUP_TABLE default
0.1
0.1
VECTORS v double
0.67025813 0.37452558 0
-0.67025813 -0.37452558 0
VECTORS q double
0.92589447 -1.2324061 0
0.92589447 -1.2324061 0
