# vtk DataFile Version 4.0
hesp visualization file
ASCII
DATASET UNSTRUCTURED_GRID
POINTS 2 double
0.81093045 0.50586762 0
0.18806955 0.49413238 0
CELLS 0 0
CELL_TYPES 0
POINT_DATA 2
SCALARS m double
LOOKUP_TABLE default
1
1
SCALARS r double
LOOKUP_TABLE default
0.1
0.1
VECTORS v double
0.5352838 -0.16522402 0
-0.5352838 0.16522402 0
