# vtk DataFile Version 4.0
hesp visualization file
ASCII
DATASET UNSTRUCTURED_GRID
POINTS 2 double
0.46645811 0.55857571 0.0045
0.54154189 0.45042429 0.0045
CELLS 0 0
CELL_TYPES 0
POINT_DATA 2
SCALARS m double
LOOKUP_TABLE default
1
1
SCALARS r double
LOOKUP_TABLE default
0.1
0.1
VECTORS v double
0.73550627 0.3523832 0.03
-0.67550627 -0.2923832 0.03
VECTORS q double
0.99999744 -0.0030162917 0
0.99999744 -0.0030162917 0
