# vtk DataFile Version 4.0
hesp visualization file
ASCII
DATASET UNSTRUCTURED_GRID
POINTS 2 double
0.74669639 0.5256945 0
0.25230361 0.4743055 0
CELLS 0 0
CELL_TYPES 0
POINT_DATA 2
SCALARS m double
LOOKUP_TABLE default
1
1
SCALARS r double
LOOKUP_TABLE default
0.1
0.1
VECTORS v double
0.5352838 -0.16522402 0
-0.5352838 0.16522402 0
