# vtk DataFile Version 4.0
hesp visualization file
ASCII
DATASET UNSTRUCTURED_GRID
POINTS 2 double
0.48680033 0.57215574 0.005445
0.52308967 0.43873426 0.005445
CELLS 0 0
CELL_TYPES 0
POINT_DATA 2
SCALARS m double
LOOKUP_TABLE default
1
1
SCALARS r double
LOOKUP_TABLE default
0.1
0.1
VECTORS v double
0.66773171 0.47748847 0.033
-0.60173171 -0.41148847 0.033
VECTORS q double
0.99975067 -0.025870196 0
0.99975067 -0.025870196 0
