# vtk DataFile Version 4.0
hesp visualization file
ASCII
DATASET UNSTRUCTURED_GRID
POINTS 2 double
0.73296677 0.72533517 0
0.25535905 0.28892378 0
CELLS 0 0
CELL_TYPES 0
POINT_DATA 2
SCALARS m double
LOOKUP_TABLE default
1
1
SCALARS r double
LOOKUP_TABLE default
0.1
0.1
VECTORS v double
0.64547973 0.40750781 0
-0.67067372 -0.37381102 0
VECTORS q double
0 0 0
0 0 0
