# vtk DataFile Version 4.0
hesp visualization file
ASCII
DATASET UNSTRUCTURED_GRID
POINTS 2 double
0.12551366 0.92485603 0
0.87348634 0.075143968 0
CELLS 0 0
CELL_TYPES 0
POINT_DATA 2
SCALARS m double
LOOKUP_TABLE default
1
1
SCALARS r double
LOOKUP_TABLE default
0.1
0.1
VECTORS v double
0.67025813 0.37452558 0
-0.67025813 -0.37452558 0
VECTORS q double
1.1650486 2.0949757 0
1.1650486 2.0949757 0
