# vtk DataFile Version 4.0
hesp visualization file
ASCII
DATASET UNSTRUCTURED_GRID
POINTS 2 double
0.38691433 0.070921007 0
0.61208567 0.92907899 0
CELLS 0 0
CELL_TYPES 0
POINT_DATA 2
SCALARS m double
LOOKUP_TABLE default
1
1
SCALARS r double
LOOKUP_TABLE default
0.1
0.1
VECTORS v double
0.67025813 0.37452558 0
-0.67025813 -0.37452558 0
VECTORS q double
-10.261689 0.86515478 0
-10.261689 0.86515478 0
