# vtk DataFile Version 4.0
hesp visualization file
ASCII
DATASET UNSTRUCTURED_GRID
POINTS 125 double
0.5 0.22417306 0.5
0.5 0.22417306 0.7
0.5 0.22417306 0.9
0.5 0.22417306 1.1
0.5 0.22417306 1.3
0.505 0.33312089 0.51
0.505 0.33312089 0.71
0.505 0.33312089 0.91
0.505 0.33312089 1.11
0.505 0.33312089 1.31
0.51 0.37071808 0.52
0.51 0.37071808 0.72
0.51 0.37071808 0.92
0.51 0.37071808 1.12
0.51 0.37071808 1.32
0.515 0.52397537 0.53
0.515 0.52397537 0.73
0.515 0.52397537 0.93
0.515 0.52397537 1.13
0.515 0.52397537 1.33
0.52 0.50045202 0.54
0.52 0.50045202 0.74
0.52 0.50045202 0.94
0.52 0.50045202 1.14
0.52 0.50045202 1.34
0.7 0.22417306 0.5
0.7 0.22417306 0.7
0.7 0.22417306 0.9
0.7 0.22417306 1.1
0.7 0.22417306 1.3
0.705 0.33312089 0.51
0.705 0.33312089 0.71
0.705 0.33312089 0.91
0.705 0.33312089 1.11
0.705 0.33312089 1.31
0.71 0.37071808 0.52
0.71 0.37071808 0.72
0.71 0.37071808 0.92
0.71 0.37071808 1.12
0.71 0.37071808 1.32
0.715 0.52397537 0.53
0.715 0.52397537 0.73
0.715 0.52397537 0.93
0.715 0.52397537 1.13
0.715 0.52397537 1.33
0.72 0.50045202 0.54
0.72 0.50045202 0.74
0.72 0.50045202 0.94
0.72 0.50045202 1.14
0.72 0.50045202 1.34
0.9 0.22417306 0.5
0.9 0.22417306 0.7
0.9 0.22417306 0.9
0.9 0.22417306 1.1
0.9 0.22417306 1.3
0.905 0.33312089 0.51
0.905 0.33312089 0.71
0.905 0.33312089 0.91
0.905 0.33312089 1.11
0.905 0.33312089 1.31
0.91 0.37071808 0.52
0.91 0.37071808 0.72
0.91 0.37071808 0.92
0.91 0.37071808 1.12
0.91 0.37071808 1.32
0.915 0.52397537 0.53
0.915 0.52397537 0.73
0.915 0.52397537 0.93
0.915 0.52397537 1.13
0.915 0.52397537 1.33
0.92 0.50045202 0.54
0.92 0.50045202 0.74
0.92 0.50045202 0.94
0.92 0.50045202 1.14
0.92 0.50045202 1.34
1.1 0.22417306 0.5
1.1 0.22417306 0.7
1.1 0.22417306 0.9
1.1 0.22417306 1.1
1.1 0.22417306 1.3
1.105 0.33312089 0.51
1.105 0.33312089 0.71
1.105 0.33312089 0.91
1.105 0.33312089 1.11
1.105 0.33312089 1.31
1.11 0.37071808 0.52
1.11 0.37071808 0.72
1.11 0.37071808 0.92
1.11 0.37071808 1.12
1.11 0.37071808 1.32
1.115 0.52397537 0.53
1.115 0.52397537 0.73
1.115 0.52397537 0.93
1.115 0.52397537 1.13
1.115 0.52397537 1.33
1.12 0.50045202 0.54
1.12 0.50045202 0.74
1.12 0.50045202 0.94
1.12 0.50045202 1.14
1.12 0.50045202 1.34
1.3 0.22417306 0.5
1.3 0.22417306 0.7
1.3 0.22417306 0.9
1.3 0.22417306 1.1
1.3 0.22417306 1.3
1.305 0.33312089 0.51
1.305 0.33312089 0.71
1.305 0.33312089 0.91
1.305 0.33312089 1.11
1.305 0.33312089 1.31
1.31 0.37071808 0.52
1.31 0.37071808 0.72
1.31 0.37071808 0.92
1.31 0.37071808 1.12
1.31 0.37071808 1.32
1.315 0.52397537 0.53
1.315 0.52397537 0.73
1.315 0.52397537 0.93
1.315 0.52397537 1.13
1.315 0.52397537 1.33
1.32 0.50045202 0.54
1.32 0.50045202 0.74
1.32 0.50045202 0.94
1.32 0.50045202 1.14
1.32 0.50045202 1.34
CELLS 0 0
CELL_TYPES 0
POINT_DATA 125
SCALARS m double
LOOKUP_TABLE default
1
1
1
1
1
1
1
1
1
1
1
1
1
1
1
1
1
1
1
1
1
1
1
1
1
1
1
1
1
1
1
1
1
1
1
1
1
1
1
1
1
1
1
1
1
1
1
1
1
1
1
1
1
1
1
1
1
1
1
1
1
1
1
1
1
1
1
1
1
1
1
1
1
1
1
1
1
1
1
1
1
1
1
1
1
1
1
1
1
1
1
1
1
1
1
1
1
1
1
1
1
1
1
1
1
1
1
1
1
1
1
1
1
1
1
1
1
1
1
1
1
1
1
1
1
SCALARS r double
LOOKUP_TABLE default
0.1
0.1
0.1
0.1
0.1
0.1
0.1
0.1
0.1
0.1
0.1
0.1
0.1
0.1
0.1
0.1
0.1
0.1
0.1
0.1
0.1
0.1
0.1
0.1
0.1
0.1
0.1
0.1
0.1
0.1
0.1
0.1
0.1
0.1
0.1
0.1
0.1
0.1
0.1
0.1
0.1
0.1
0.1
0.1
0.1
0.1
0.1
0.1
0.1
0.1
0.1
0.1
0.1
0.1
0.1
0.1
0.1
0.1
0.1
0.1
0.1
0.1
0.1
0.1
0.1
0.1
0.1
0.1
0.1
0.1
0.1
0.1
0.1
0.1
0.1
0.1
0.1
0.1
0.1
0.1
0.1
0.1
0.1
0.1
0.1
0.1
0.1
0.1
0.1
0.1
0.1
0.1
0.1
0.1
0.1
0.1
0.1
0.1
0.1
0.1
0.1
0.1
0.1
0.1
0.1
0.1
0.1
0.1
0.1
0.1
0.1
0.1
0.1
0.1
0.1
0.1
0.1
0.1
0.1
0.1
0.1
0.1
0.1
0.1
0.1
VECTORS v double
1.6330824e-20 0.62153429 1.6330824e-20
1.6330824e-20 0.62153429 2.2863154e-20
1.6330824e-20 0.62153429 2.9395484e-20
1.6330824e-20 0.62153429 3.5927814e-20
1.6330824e-20 0.62153429 4.2460144e-20
0 0.25735803 0
0 0.25735803 0
0 0.25735803 0
0 0.25735803 0
0 0.25735803 0
0 -0.29560474 0
0 -0.29560474 0
0 -0.29560474 0
0 -0.29560474 0
0 -0.29560474 0
0 0.025525071 0
0 0.025525071 0
0 0.025525071 0
0 0.025525071 0
0 0.025525071 0
0 0.15164768 0
0 0.15164768 0
0 0.15164768 0
0 0.15164768 0
0 0.15164768 0
2.2863154e-20 0.62153429 1.6330824e-20
2.2863154e-20 0.62153429 2.2863154e-20
2.2863154e-20 0.62153429 2.9395484e-20
2.2863154e-20 0.62153429 3.5927814e-20
2.2863154e-20 0.62153429 4.2460144e-20
0 0.25735803 0
0 0.25735803 0
0 0.25735803 0
0 0.25735803 0
0 0.25735803 0
0 -0.29560474 0
0 -0.29560474 0
0 -0.29560474 0
0 -0.29560474 0
0 -0.29560474 0
0 0.025525071 0
0 0.025525071 0
0 0.025525071 0
0 0.025525071 0
0 0.025525071 0
0 0.15164768 0
0 0.15164768 0
0 0.15164768 0
0 0.15164768 0
0 0.15164768 0
2.9395484e-20 0.62153429 1.6330824e-20
2.9395484e-20 0.62153429 2.2863154e-20
2.9395484e-20 0.62153429 2.9395484e-20
2.9395484e-20 0.62153429 3.5927814e-20
2.9395484e-20 0.62153429 4.2460144e-20
0 0.25735803 0
0 0.25735803 0
0 0.25735803 0
0 0.25735803 0
0 0.25735803 0
0 -0.29560474 0
0 -0.29560474 0
0 -0.29560474 0
0 -0.29560474 0
0 -0.29560474 0
0 0.025525071 0
0 0.025525071 0
0 0.025525071 0
0 0.025525071 0
0 0.025525071 0
0 0.15164768 0
0 0.15164768 0
0 0.15164768 0
0 0.15164768 0
0 0.15164768 0
3.5927814e-20 0.62153429 1.6330824e-20
3.5927814e-20 0.62153429 2.2863154e-20
3.5927814e-20 0.62153429 2.9395484e-20
3.5927814e-20 0.62153429 3.5927814e-20
3.5927814e-20 0.62153429 4.2460144e-20
0 0.25735803 0
0 0.25735803 0
0 0.25735803 0
0 0.25735803 0
0 0.25735803 0
0 -0.29560474 0
0 -0.29560474 0
0 -0.29560474 0
0 -0.29560474 0
0 -0.29560474 0
0 0.025525071 0
0 0.025525071 0
0 0.025525071 0
0 0.025525071 0
0 0.025525071 0
0 0.15164768 0
0 0.15164768 0
0 0.15164768 0
0 0.15164768 0
0 0.15164768 0
4.2460144e-20 0.62153429 1.6330824e-20
4.2460144e-20 0.62153429 2.2863154e-20
4.2460144e-20 0.62153429 2.9395484e-20
4.2460144e-20 0.62153429 3.5927814e-20
4.2460144e-20 0.62153429 4.2460144e-20
0 0.25735803 0
0 0.25735803 0
0 0.25735803 0
0 0.25735803 0
0 0.25735803 0
0 -0.29560474 0
0 -0.29560474 0
0 -0.29560474 0
0 -0.29560474 0
0 -0.29560474 0
0 0.025525071 0
0 0.025525071 0
0 0.025525071 0
0 0.025525071 0
0 0.025525071 0
0 0.15164768 0
0 0.15164768 0
0 0.15164768 0
0 0.15164768 0
0 0.15164768 0
VECTORS q double
1 -6.4719845e-18 4.7261872e-36
1 -6.4719845e-18 9.9818538e-36
1 -6.4719845e-18 -1.6014024e-36
1 -6.4719845e-18 1.3296878e-35
1 -6.4719845e-18 -7.0675476e-37
1 0 0
1 0 0
1 0 0
1 0 0
1 0 0
1 0 0
1 0 0
1 0 0
1 0 0
1 0 0
1 8.8080376e-16 1.0168804e-32
1 8.8080376e-16 1.4006088e-32
1 8.8080376e-16 1.7843373e-32
1 8.8080376e-16 2.1680657e-32
1 8.8080376e-16 2.5517942e-32
1 0 0
1 0 0
1 0 0
1 0 0
1 0 0
1 -9.0607783e-18 6.6166621e-36
1 -9.0607783e-18 1.6478304e-35
1 -9.0607783e-18 -1.4567915e-35
1 -9.0607783e-18 7.3489391e-36
1 -9.0607783e-18 -9.2709554e-36
1 0 0
1 0 0
1 0 0
1 0 0
1 0 0
1 0 0
1 0 0
1 0 0
1 0 0
1 0 0
1 1.2228635e-15 1.4117854e-32
1 1.2228635e-15 1.9445346e-32
1 1.2228635e-15 2.4772838e-32
1 1.2228635e-15 3.010033e-32
1 1.2228635e-15 3.5427822e-32
1 0 0
1 0 0
1 0 0
1 0 0
1 0 0
1 -1.1649572e-17 1.5729374e-35
1 -1.1649572e-17 3.2122922e-35
1 -1.1649572e-17 1.0021206e-35
1 -1.1649572e-17 4.5697389e-35
1 -1.1649572e-17 2.1164925e-35
1 0 0
1 0 0
1 0 0
1 0 0
1 0 0
1 0 0
1 0 0
1 0 0
1 0 0
1 0 0
1 1.5649232e-15 1.8066904e-32
1 1.5649232e-15 2.4884603e-32
1 1.5649232e-15 3.1702303e-32
1 1.5649232e-15 3.8520003e-32
1 1.5649232e-15 4.5337702e-32
1 0 0
1 0 0
1 0 0
1 0 0
1 0 0
1 -1.4238366e-17 3.1753746e-36
1 -1.4238366e-17 1.5508213e-35
1 -1.4238366e-17 -1.0649026e-35
1 -1.4238366e-17 2.5786458e-35
1 -1.4238366e-17 -1.6769707e-35
1 0 0
1 0 0
1 0 0
1 0 0
1 0 0
1 0 0
1 0 0
1 0 0
1 0 0
1 0 0
1 1.9069829e-15 2.2015954e-32
1 1.9069829e-15 3.0323861e-32
1 1.9069829e-15 3.8631768e-32
1 1.9069829e-15 4.6939675e-32
1 1.9069829e-15 5.5247582e-32
1 0 0
1 0 0
1 0 0
1 0 0
1 0 0
1 -1.682716e-17 2.9139974e-35
1 -1.682716e-17 5.1375095e-35
1 -1.682716e-17 1.3458613e-35
1 -1.682716e-17 6.5579355e-35
1 -1.682716e-17 5.170329e-35
1 0 0
1 0 0
1 0 0
1 0 0
1 0 0
1 0 0
1 0 0
1 0 0
1 0 0
1 0 0
1 2.2490426e-15 2.5965004e-32
1 2.2490426e-15 3.5763119e-32
1 2.2490426e-15 4.5561233e-32
1 2.2490426e-15 5.5359348e-32
1 2.2490426e-15 6.5157463e-32
1 0 0
1 0 0
1 0 0
1 0 0
1 0 0
