# vtk DataFile Version 4.0
hesp visualization file
ASCII
DATASET UNSTRUCTURED_GRID
POINTS 125 double
0.5 0.20824306 0.5
0.5 0.20824306 0.7
0.5 0.20824306 0.9
0.5 0.20824306 1.1
0.5 0.20824306 1.3
0.505 0.25550103 0.51
0.505 0.25550103 0.71
0.505 0.25550103 0.91
0.505 0.25550103 1.11
0.505 0.25550103 1.31
0.51 0.21552471 0.52
0.51 0.21552471 0.72
0.51 0.21552471 0.92
0.51 0.21552471 1.12
0.51 0.21552471 1.32
0.515 0.27258667 0.53
0.515 0.27258667 0.73
0.515 0.27258667 0.93
0.515 0.27258667 1.13
0.515 0.27258667 1.33
0.52 0.2369509 0.54
0.52 0.2369509 0.74
0.52 0.2369509 0.94
0.52 0.2369509 1.14
0.52 0.2369509 1.34
0.7 0.20824306 0.5
0.7 0.20824306 0.7
0.7 0.20824306 0.9
0.7 0.20824306 1.1
0.7 0.20824306 1.3
0.705 0.25550103 0.51
0.705 0.25550103 0.71
0.705 0.25550103 0.91
0.705 0.25550103 1.11
0.705 0.25550103 1.31
0.71 0.21552471 0.52
0.71 0.21552471 0.72
0.71 0.21552471 0.92
0.71 0.21552471 1.12
0.71 0.21552471 1.32
0.715 0.27258667 0.53
0.715 0.27258667 0.73
0.715 0.27258667 0.93
0.715 0.27258667 1.13
0.715 0.27258667 1.33
0.72 0.2369509 0.54
0.72 0.2369509 0.74
0.72 0.2369509 0.94
0.72 0.2369509 1.14
0.72 0.2369509 1.34
0.9 0.20824306 0.5
0.9 0.20824306 0.7
0.9 0.20824306 0.9
0.9 0.20824306 1.1
0.9 0.20824306 1.3
0.905 0.25550103 0.51
0.905 0.25550103 0.71
0.905 0.25550103 0.91
0.905 0.25550103 1.11
0.905 0.25550103 1.31
0.91 0.21552471 0.52
0.91 0.21552471 0.72
0.91 0.21552471 0.92
0.91 0.21552471 1.12
0.91 0.21552471 1.32
0.915 0.27258667 0.53
0.915 0.27258667 0.73
0.915 0.27258667 0.93
0.915 0.27258667 1.13
0.915 0.27258667 1.33
0.92 0.2369509 0.54
0.92 0.2369509 0.74
0.92 0.2369509 0.94
0.92 0.2369509 1.14
0.92 0.2369509 1.34
1.1 0.20824306 0.5
1.1 0.20824306 0.7
1.1 0.20824306 0.9
1.1 0.20824306 1.1
1.1 0.20824306 1.3
1.105 0.25550103 0.51
1.105 0.25550103 0.71
1.105 0.25550103 0.91
1.105 0.25550103 1.11
1.105 0.25550103 1.31
1.11 0.21552471 0.52
1.11 0.21552471 0.72
1.11 0.21552471 0.92
1.11 0.21552471 1.12
1.11 0.21552471 1.32
1.115 0.27258667 0.53
1.115 0.27258667 0.73
1.115 0.27258667 0.93
1.115 0.27258667 1.13
1.115 0.27258667 1.33
1.12 0.2369509 0.54
1.12 0.2369509 0.74
1.12 0.2369509 0.94
1.12 0.2369509 1.14
1.12 0.2369509 1.34
1.3 0.20824306 0.5
1.3 0.20824306 0.7
1.3 0.20824306 0.9
1.3 0.20824306 1.1
1.3 0.20824306 1.3
1.305 0.25550103 0.51
1.305 0.25550103 0.71
1.305 0.25550103 0.91
1.305 0.25550103 1.11
1.305 0.25550103 1.31
1.31 0.21552471 0.52
1.31 0.21552471 0.72
1.31 0.21552471 0.92
1.31 0.21552471 1.12
1.31 0.21552471 1.32
1.315 0.27258667 0.53
1.315 0.27258667 0.73
1.315 0.27258667 0.93
1.315 0.27258667 1.13
1.315 0.27258667 1.33
1.32 0.2369509 0.54
1.32 0.2369509 0.74
1.32 0.2369509 0.94
1.32 0.2369509 1.14
1.32 0.2369509 1.34
CELLS 0 0
CELL_TYPES 0
POINT_DATA 125
SCALARS m double
LOOKUP_TABLE default
1
1
1
1
1
1
1
1
1
1
1
1
1
1
1
1
1
1
1
1
1
1
1
1
1
1
1
1
1
1
1
1
1
1
1
1
1
1
1
1
1
1
1
1
1
1
1
1
1
1
1
1
1
1
1
1
1
1
1
1
1
1
1
1
1
1
1
1
1
1
1
1
1
1
1
1
1
1
1
1
1
1
1
1
1
1
1
1
1
1
1
1
1
1
1
1
1
1
1
1
1
1
1
1
1
1
1
1
1
1
1
1
1
1
1
1
1
1
1
1
1
1
1
1
1
SCALARS r double
LOOKUP_TABLE default
0.1
0.1
0.1
0.1
0.1
0.1
0.1
0.1
0.1
0.1
0.1
0.1
0.1
0.1
0.1
0.1
0.1
0.1
0.1
0.1
0.1
0.1
0.1
0.1
0.1
0.1
0.1
0.1
0.1
0.1
0.1
0.1
0.1
0.1
0.1
0.1
0.1
0.1
0.1
0.1
0.1
0.1
0.1
0.1
0.1
0.1
0.1
0.1
0.1
0.1
0.1
0.1
0.1
0.1
0.1
0.1
0.1
0.1
0.1
0.1
0.1
0.1
0.1
0.1
0.1
0.1
0.1
0.1
0.1
0.1
0.1
0.1
0.1
0.1
0.1
0.1
0.1
0.1
0.1
0.1
0.1
0.1
0.1
0.1
0.1
0.1
0.1
0.1
0.1
0.1
0.1
0.1
0.1
0.1
0.1
0.1
0.1
0.1
0.1
0.1
0.1
0.1
0.1
0.1
0.1
0.1
0.1
0.1
0.1
0.1
0.1
0.1
0.1
0.1
0.1
0.1
0.1
0.1
0.1
0.1
0.1
0.1
0.1
0.1
0.1
VECTORS v double
3.9098147e-19 -0.3184687 3.9098147e-19
3.9098147e-19 -0.3184687 5.4737406e-19
3.9098147e-19 -0.3184687 7.0376664e-19
3.9098147e-19 -0.3184687 8.6015923e-19
3.9098147e-19 -0.3184687 1.0165518e-18
2.3866299e-20 -0.1861853 2.4102599e-20
2.3866299e-20 -0.1861853 3.3554599e-20
2.3866299e-20 -0.1861853 4.3006599e-20
2.3866299e-20 -0.1861853 5.2458598e-20
2.3866299e-20 -0.1861853 6.1910598e-20
3.2834484e-19 -0.037525647 3.3478297e-19
3.2834484e-19 -0.037525647 4.6354566e-19
3.2834484e-19 -0.037525647 5.9230834e-19
3.2834484e-19 -0.037525647 7.2107102e-19
3.2834484e-19 -0.037525647 8.498337e-19
-1.2728356e-19 -0.070102762 -1.3099084e-19
-1.2728356e-19 -0.070102762 -1.8042135e-19
-1.2728356e-19 -0.070102762 -2.2985186e-19
-1.2728356e-19 -0.070102762 -2.7928236e-19
-1.2728356e-19 -0.070102762 -3.2871287e-19
-3.5994104e-20 -0.24193274 -3.7378493e-20
-3.5994104e-20 -0.24193274 -5.1222379e-20
-3.5994104e-20 -0.24193274 -6.5066266e-20
-3.5994104e-20 -0.24193274 -7.8910152e-20
-3.5994104e-20 -0.24193274 -9.2754038e-20
5.4737406e-19 -0.3184687 3.9098147e-19
5.4737406e-19 -0.3184687 5.4737406e-19
5.4737406e-19 -0.3184687 7.0376664e-19
5.4737406e-19 -0.3184687 8.6015923e-19
5.4737406e-19 -0.3184687 1.0165518e-18
3.3318299e-20 -0.1861853 2.4102599e-20
3.3318299e-20 -0.1861853 3.3554599e-20
3.3318299e-20 -0.1861853 4.3006599e-20
3.3318299e-20 -0.1861853 5.2458598e-20
3.3318299e-20 -0.1861853 6.1910598e-20
4.5710752e-19 -0.037525647 3.3478297e-19
4.5710752e-19 -0.037525647 4.6354566e-19
4.5710752e-19 -0.037525647 5.9230834e-19
4.5710752e-19 -0.037525647 7.2107102e-19
4.5710752e-19 -0.037525647 8.498337e-19
-1.7671406e-19 -0.070102762 -1.3099084e-19
-1.7671406e-19 -0.070102762 -1.8042135e-19
-1.7671406e-19 -0.070102762 -2.2985186e-19
-1.7671406e-19 -0.070102762 -2.7928236e-19
-1.7671406e-19 -0.070102762 -3.2871287e-19
-4.9837991e-20 -0.24193274 -3.7378493e-20
-4.9837991e-20 -0.24193274 -5.1222379e-20
-4.9837991e-20 -0.24193274 -6.5066266e-20
-4.9837991e-20 -0.24193274 -7.8910152e-20
-4.9837991e-20 -0.24193274 -9.2754038e-20
7.0376664e-19 -0.3184687 3.9098147e-19
7.0376664e-19 -0.3184687 5.4737406e-19
7.0376664e-19 -0.3184687 7.0376664e-19
7.0376664e-19 -0.3184687 8.6015923e-19
7.0376664e-19 -0.3184687 1.0165518e-18
4.2770299e-20 -0.1861853 2.4102599e-20
4.2770299e-20 -0.1861853 3.3554599e-20
4.2770299e-20 -0.1861853 4.3006599e-20
4.2770299e-20 -0.1861853 5.2458598e-20
4.2770299e-20 -0.1861853 6.1910598e-20
5.858702e-19 -0.037525647 3.3478297e-19
5.858702e-19 -0.037525647 4.6354566e-19
5.858702e-19 -0.037525647 5.9230834e-19
5.858702e-19 -0.037525647 7.2107102e-19
5.858702e-19 -0.037525647 8.498337e-19
-2.2614457e-19 -0.070102762 -1.3099084e-19
-2.2614457e-19 -0.070102762 -1.8042135e-19
-2.2614457e-19 -0.070102762 -2.2985186e-19
-2.2614457e-19 -0.070102762 -2.7928236e-19
-2.2614457e-19 -0.070102762 -3.2871287e-19
-6.3681877e-20 -0.24193274 -3.7378493e-20
-6.3681877e-20 -0.24193274 -5.1222379e-20
-6.3681877e-20 -0.24193274 -6.5066266e-20
-6.3681877e-20 -0.24193274 -7.8910152e-20
-6.3681877e-20 -0.24193274 -9.2754038e-20
8.6015923e-19 -0.3184687 3.9098147e-19
8.6015923e-19 -0.3184687 5.4737406e-19
8.6015923e-19 -0.3184687 7.0376664e-19
8.6015923e-19 -0.3184687 8.6015923e-19
8.6015923e-19 -0.3184687 1.0165518e-18
5.2222298e-20 -0.1861853 2.4102599e-20
5.2222298e-20 -0.1861853 3.3554599e-20
5.2222298e-20 -0.1861853 4.3006599e-20
5.2222298e-20 -0.1861853 5.2458598e-20
5.2222298e-20 -0.1861853 6.1910598e-20
7.1463289e-19 -0.037525647 3.3478297e-19
7.1463289e-19 -0.037525647 4.6354566e-19
7.1463289e-19 -0.037525647 5.9230834e-19
7.1463289e-19 -0.037525647 7.2107102e-19
7.1463289e-19 -0.037525647 8.498337e-19
-2.7557508e-19 -0.070102762 -1.3099084e-19
-2.7557508e-19 -0.070102762 -1.8042135e-19
-2.7557508e-19 -0.070102762 -2.2985186e-19
-2.7557508e-19 -0.070102762 -2.7928236e-19
-2.7557508e-19 -0.070102762 -3.2871287e-19
-7.7525763e-20 -0.24193274 -3.7378493e-20
-7.7525763e-20 -0.24193274 -5.1222379e-20
-7.7525763e-20 -0.24193274 -6.5066266e-20
-7.7525763e-20 -0.24193274 -7.8910152e-20
-7.7525763e-20 -0.24193274 -9.2754038e-20
1.0165518e-18 -0.3184687 3.9098147e-19
1.0165518e-18 -0.3184687 5.4737406e-19
1.0165518e-18 -0.3184687 7.0376664e-19
1.0165518e-18 -0.3184687 8.6015923e-19
1.0165518e-18 -0.3184687 1.0165518e-18
6.1674298e-20 -0.1861853 2.4102599e-20
6.1674298e-20 -0.1861853 3.3554599e-20
6.1674298e-20 -0.1861853 4.3006599e-20
6.1674298e-20 -0.1861853 5.2458598e-20
6.1674298e-20 -0.1861853 6.1910598e-20
8.4339557e-19 -0.037525647 3.3478297e-19
8.4339557e-19 -0.037525647 4.6354566e-19
8.4339557e-19 -0.037525647 5.9230834e-19
8.4339557e-19 -0.037525647 7.2107102e-19
8.4339557e-19 -0.037525647 8.498337e-19
-3.2500558e-19 -0.070102762 -1.3099084e-19
-3.2500558e-19 -0.070102762 -1.8042135e-19
-3.2500558e-19 -0.070102762 -2.2985186e-19
-3.2500558e-19 -0.070102762 -2.7928236e-19
-3.2500558e-19 -0.070102762 -3.2871287e-19
-9.136965e-20 -0.24193274 -3.7378493e-20
-9.136965e-20 -0.24193274 -5.1222379e-20
-9.136965e-20 -0.24193274 -6.5066266e-20
-9.136965e-20 -0.24193274 -7.8910152e-20
-9.136965e-20 -0.24193274 -9.2754038e-20
VECTORS q double
1 -2.4908528e-13 9.2106123e-29
1 -2.4908528e-13 1.289475e-28
1 -2.4908528e-13 1.6578494e-28
1 -2.4908528e-13 2.0263243e-28
1 -2.4908528e-13 2.3947903e-28
1 -6.0847096e-15 1.6663103e-31
1 -6.0847096e-15 2.3243889e-31
1 -6.0847096e-15 2.9757397e-31
1 -6.0847096e-15 3.6349205e-31
1 -6.0847096e-15 4.2821838e-31
1 -2.0908851e-13 6.199638e-29
1 -2.0908851e-13 8.5843205e-29
1 -2.0908851e-13 1.0966313e-28
1 -2.0908851e-13 1.3352068e-28
1 -2.0908851e-13 1.574051e-28
1 1.2342492e-13 1.659982e-29
1 1.2342492e-13 2.2847338e-29
1 1.2342492e-13 2.9130916e-29
1 1.2342492e-13 3.5399255e-29
1 1.2342492e-13 4.1641066e-29
1 3.6811548e-14 1.3829321e-30
1 3.6811548e-14 1.8865485e-30
1 3.6811548e-14 2.4025521e-30
1 3.6811548e-14 2.9100504e-30
1 3.6811548e-14 3.4177169e-30
1 -3.4871939e-13 1.2895023e-28
1 -3.4871939e-13 1.8052983e-28
1 -3.4871939e-13 2.3210442e-28
1 -3.4871939e-13 2.8368774e-28
1 -3.4871939e-13 3.3526877e-28
1 -8.4944956e-15 2.3278067e-31
1 -8.4944956e-15 3.2471875e-31
1 -8.4944956e-15 4.156673e-31
1 -8.4944956e-15 5.0800374e-31
1 -8.4944956e-15 5.9799227e-31
1 -2.91084e-13 8.6298778e-29
1 -2.91084e-13 1.1949437e-28
1 -2.91084e-13 1.5265729e-28
1 -2.91084e-13 1.8586711e-28
1 -2.91084e-13 2.1911016e-28
1 1.7135693e-13 2.3048131e-29
1 1.7135693e-13 3.1722869e-29
1 1.7135693e-13 4.0448548e-29
1 1.7135693e-13 4.9153094e-29
1 1.7135693e-13 5.781972e-29
1 5.0969836e-14 1.9145612e-30
1 5.0969836e-14 2.6123356e-30
1 5.0969836e-14 3.3285691e-30
1 5.0969836e-14 4.0312332e-30
1 5.0969836e-14 4.7328718e-30
1 -4.4835351e-13 1.6579799e-28
1 -4.4835351e-13 2.3210532e-28
1 -4.4835351e-13 2.9842581e-28
1 -4.4835351e-13 3.6475148e-28
1 -4.4835351e-13 4.3106941e-28
1 -1.0904282e-14 2.9900514e-31
1 -1.0904282e-14 4.1717291e-31
1 -1.0904282e-14 5.3382082e-31
1 -1.0904282e-14 6.5238891e-31
1 -1.0904282e-14 7.6839428e-31
1 -3.730795e-13 1.1064847e-28
1 -3.730795e-13 1.5320905e-28
1 -3.730795e-13 1.9571986e-28
1 -3.730795e-13 2.3830456e-28
1 -3.730795e-13 2.8093194e-28
1 2.1928894e-13 2.9489946e-29
1 2.1928894e-13 4.0588832e-29
1 2.1928894e-13 5.1751288e-29
1 2.1928894e-13 6.2889935e-29
1 2.1928894e-13 7.3976022e-29
1 6.5128123e-14 2.4481494e-30
1 6.5128123e-14 3.3398305e-30
1 6.5128123e-14 4.2543105e-30
1 6.5128123e-14 5.1516585e-30
1 6.5128123e-14 6.0504724e-30
1 -5.4798762e-13 2.0263392e-28
1 -5.4798762e-13 2.8368738e-28
1 -5.4798762e-13 3.6473212e-28
1 -5.4798762e-13 4.4579449e-28
1 -5.4798762e-13 5.2684165e-28
1 -1.3314068e-14 3.6503261e-31
1 -1.3314068e-14 5.0917738e-31
1 -1.3314068e-14 6.5142729e-31
1 -1.3314068e-14 7.9633815e-31
1 -1.3314068e-14 9.3754642e-31
1 -4.5507499e-13 1.3497425e-28
1 -4.5507499e-13 1.8688751e-28
1 -4.5507499e-13 2.3874931e-28
1 -4.5507499e-13 2.906999e-28
1 -4.5507499e-13 3.4269305e-28
1 2.6722095e-13 3.5942954e-29
1 2.6722095e-13 4.9468934e-29
1 2.6722095e-13 6.3075566e-29
1 2.6722095e-13 7.6649327e-29
1 2.6722095e-13 9.0162258e-29
1 7.9286411e-14 2.9795196e-30
1 7.9286411e-14 4.064831e-30
1 7.9286411e-14 5.1788927e-30
1 7.9286411e-14 6.2708084e-30
1 7.9286411e-14 7.3655407e-30
1 -6.4762173e-13 2.394716e-28
1 -6.4762173e-13 3.3526414e-28
1 -6.4762173e-13 4.3103448e-28
1 -6.4762173e-13 5.2684575e-28
1 -6.4762173e-13 6.2265516e-28
1 -1.5723854e-14 4.3137985e-31
1 -1.5723854e-14 6.0160236e-31
1 -1.5723854e-14 7.702968e-31
1 -1.5723854e-14 9.4078435e-31
1 -1.5723854e-14 1.1078694e-30
1 -5.3707049e-13 1.5926447e-28
1 -5.3707049e-13 2.2052873e-28
1 -5.3707049e-13 2.817154e-28
1 -5.3707049e-13 3.4301864e-28
1 -5.3707049e-13 4.0436773e-28
1 3.1515296e-13 4.2387005e-29
1 3.1515296e-13 5.8349022e-29
1 3.1515296e-13 7.4388902e-29
1 3.1515296e-13 9.039693e-29
1 3.1515296e-13 1.0633677e-28
1 9.3444699e-14 3.5181146e-30
1 9.3444699e-14 4.8005702e-30
1 9.3444699e-14 6.1130521e-30
1 9.3444699e-14 7.403534e-30
1 9.3444699e-14 8.6955563e-30
