# vtk DataFile Version 4.0
hesp visualization file
ASCII
DATASET UNSTRUCTURED_GRID
POINTS 125 double
0.5 0.26798155 0.5
0.5 0.26798155 0.7
0.5 0.26798155 0.9
0.5 0.26798155 1.1
0.5 0.26798155 1.3
0.505 0.23569006 0.51
0.505 0.23569006 0.71
0.505 0.23569006 0.91
0.505 0.23569006 1.11
0.505 0.23569006 1.31
0.51 0.21487568 0.52
0.51 0.21487568 0.72
0.51 0.21487568 0.92
0.51 0.21487568 1.12
0.51 0.21487568 1.32
0.515 0.20982083 0.53
0.515 0.20982083 0.73
0.515 0.20982083 0.93
0.515 0.20982083 1.13
0.515 0.20982083 1.33
0.52 0.25722862 0.54
0.52 0.25722862 0.74
0.52 0.25722862 0.94
0.52 0.25722862 1.14
0.52 0.25722862 1.34
0.7 0.26798155 0.5
0.7 0.26798155 0.7
0.7 0.26798155 0.9
0.7 0.26798155 1.1
0.7 0.26798155 1.3
0.705 0.23569006 0.51
0.705 0.23569006 0.71
0.705 0.23569006 0.91
0.705 0.23569006 1.11
0.705 0.23569006 1.31
0.71 0.21487568 0.52
0.71 0.21487568 0.72
0.71 0.21487568 0.92
0.71 0.21487568 1.12
0.71 0.21487568 1.32
0.715 0.20982083 0.53
0.715 0.20982083 0.73
0.715 0.20982083 0.93
0.715 0.20982083 1.13
0.715 0.20982083 1.33
0.72 0.25722862 0.54
0.72 0.25722862 0.74
0.72 0.25722862 0.94
0.72 0.25722862 1.14
0.72 0.25722862 1.34
0.9 0.26798155 0.5
0.9 0.26798155 0.7
0.9 0.26798155 0.9
0.9 0.26798155 1.1
0.9 0.26798155 1.3
0.905 0.23569006 0.51
0.905 0.23569006 0.71
0.905 0.23569006 0.91
0.905 0.23569006 1.11
0.905 0.23569006 1.31
0.91 0.21487568 0.52
0.91 0.21487568 0.72
0.91 0.21487568 0.92
0.91 0.21487568 1.12
0.91 0.21487568 1.32
0.915 0.20982083 0.53
0.915 0.20982083 0.73
0.915 0.20982083 0.93
0.915 0.20982083 1.13
0.915 0.20982083 1.33
0.92 0.25722862 0.54
0.92 0.25722862 0.74
0.92 0.25722862 0.94
0.92 0.25722862 1.14
0.92 0.25722862 1.34
1.1 0.26798155 0.5
1.1 0.26798155 0.7
1.1 0.26798155 0.9
1.1 0.26798155 1.1
1.1 0.26798155 1.3
1.105 0.23569006 0.51
1.105 0.23569006 0.71
1.105 0.23569006 0.91
1.105 0.23569006 1.11
1.105 0.23569006 1.31
1.11 0.21487568 0.52
1.11 0.21487568 0.72
1.11 0.21487568 0.92
1.11 0.21487568 1.12
1.11 0.21487568 1.32
1.115 0.20982083 0.53
1.115 0.20982083 0.73
1.115 0.20982083 0.93
1.115 0.20982083 1.13
1.115 0.20982083 1.33
1.12 0.25722862 0.54
1.12 0.25722862 0.74
1.12 0.25722862 0.94
1.12 0.25722862 1.14
1.12 0.25722862 1.34
1.3 0.26798155 0.5
1.3 0.26798155 0.7
1.3 0.26798155 0.9
1.3 0.26798155 1.1
1.3 0.26798155 1.3
1.305 0.23569006 0.51
1.305 0.23569006 0.71
1.305 0.23569006 0.91
1.305 0.23569006 1.11
1.305 0.23569006 1.31
1.31 0.21487568 0.52
1.31 0.21487568 0.72
1.31 0.21487568 0.92
1.31 0.21487568 1.12
1.31 0.21487568 1.32
1.315 0.20982083 0.53
1.315 0.20982083 0.73
1.315 0.20982083 0.93
1.315 0.20982083 1.13
1.315 0.20982083 1.33
1.32 0.25722862 0.54
1.32 0.25722862 0.74
1.32 0.25722862 0.94
1.32 0.25722862 1.14
1.32 0.25722862 1.34
CELLS 0 0
CELL_TYPES 0
POINT_DATA 125
SCALARS m double
LOOKUP_TABLE default
1
1
1
1
1
1
1
1
1
1
1
1
1
1
1
1
1
1
1
1
1
1
1
1
1
1
1
1
1
1
1
1
1
1
1
1
1
1
1
1
1
1
1
1
1
1
1
1
1
1
1
1
1
1
1
1
1
1
1
1
1
1
1
1
1
1
1
1
1
1
1
1
1
1
1
1
1
1
1
1
1
1
1
1
1
1
1
1
1
1
1
1
1
1
1
1
1
1
1
1
1
1
1
1
1
1
1
1
1
1
1
1
1
1
1
1
1
1
1
1
1
1
1
1
1
SCALARS r double
LOOKUP_TABLE default
0.1
0.1
0.1
0.1
0.1
0.1
0.1
0.1
0.1
0.1
0.1
0.1
0.1
0.1
0.1
0.1
0.1
0.1
0.1
0.1
0.1
0.1
0.1
0.1
0.1
0.1
0.1
0.1
0.1
0.1
0.1
0.1
0.1
0.1
0.1
0.1
0.1
0.1
0.1
0.1
0.1
0.1
0.1
0.1
0.1
0.1
0.1
0.1
0.1
0.1
0.1
0.1
0.1
0.1
0.1
0.1
0.1
0.1
0.1
0.1
0.1
0.1
0.1
0.1
0.1
0.1
0.1
0.1
0.1
0.1
0.1
0.1
0.1
0.1
0.1
0.1
0.1
0.1
0.1
0.1
0.1
0.1
0.1
0.1
0.1
0.1
0.1
0.1
0.1
0.1
0.1
0.1
0.1
0.1
0.1
0.1
0.1
0.1
0.1
0.1
0.1
0.1
0.1
0.1
0.1
0.1
0.1
0.1
0.1
0.1
0.1
0.1
0.1
0.1
0.1
0.1
0.1
0.1
0.1
0.1
0.1
0.1
0.1
0.1
0.1
VECTORS v double
2.5328754e-19 -0.14233406 2.5328754e-19
2.5328754e-19 -0.14233406 3.5460255e-19
2.5328754e-19 -0.14233406 4.5591757e-19
2.5328754e-19 -0.14233406 5.5723258e-19
2.5328754e-19 -0.14233406 6.5854759e-19
2.814555e-21 0.041476994 2.8424219e-21
2.814555e-21 0.041476994 3.9570971e-21
2.814555e-21 0.041476994 5.0717724e-21
2.814555e-21 0.041476994 6.1864477e-21
2.814555e-21 0.041476994 7.3011229e-21
2.0584403e-19 -0.032878748 2.0988018e-19
2.0584403e-19 -0.032878748 2.9060333e-19
2.0584403e-19 -0.032878748 3.7132648e-19
2.0584403e-19 -0.032878748 4.5204963e-19
2.0584403e-19 -0.032878748 5.3277277e-19
-9.3427058e-20 0.18139054 -9.6148234e-20
-9.3427058e-20 0.18139054 -1.3243059e-19
-9.3427058e-20 0.18139054 -1.6871294e-19
-9.3427058e-20 0.18139054 -2.0499529e-19
-9.3427058e-20 0.18139054 -2.4127764e-19
-3.3730343e-20 -0.05780235 -3.5027664e-20
-3.3730343e-20 -0.05780235 -4.8000873e-20
-3.3730343e-20 -0.05780235 -6.0974082e-20
-3.3730343e-20 -0.05780235 -7.3947291e-20
-3.3730343e-20 -0.05780235 -8.69205e-20
3.5460255e-19 -0.14233406 2.5328754e-19
3.5460255e-19 -0.14233406 3.5460255e-19
3.5460255e-19 -0.14233406 4.5591757e-19
3.5460255e-19 -0.14233406 5.5723258e-19
3.5460255e-19 -0.14233406 6.5854759e-19
3.9292303e-21 0.041476994 2.8424219e-21
3.9292303e-21 0.041476994 3.9570971e-21
3.9292303e-21 0.041476994 5.0717724e-21
3.9292303e-21 0.041476994 6.1864477e-21
3.9292303e-21 0.041476994 7.3011229e-21
2.8656717e-19 -0.032878748 2.0988018e-19
2.8656717e-19 -0.032878748 2.9060333e-19
2.8656717e-19 -0.032878748 3.7132648e-19
2.8656717e-19 -0.032878748 4.5204963e-19
2.8656717e-19 -0.032878748 5.3277277e-19
-1.2970941e-19 0.18139054 -9.6148234e-20
-1.2970941e-19 0.18139054 -1.3243059e-19
-1.2970941e-19 0.18139054 -1.6871294e-19
-1.2970941e-19 0.18139054 -2.0499529e-19
-1.2970941e-19 0.18139054 -2.4127764e-19
-4.6703552e-20 -0.05780235 -3.5027664e-20
-4.6703552e-20 -0.05780235 -4.8000873e-20
-4.6703552e-20 -0.05780235 -6.0974082e-20
-4.6703552e-20 -0.05780235 -7.3947291e-20
-4.6703552e-20 -0.05780235 -8.69205e-20
4.5591757e-19 -0.14233406 2.5328754e-19
4.5591757e-19 -0.14233406 3.5460255e-19
4.5591757e-19 -0.14233406 4.5591757e-19
4.5591757e-19 -0.14233406 5.5723258e-19
4.5591757e-19 -0.14233406 6.5854759e-19
5.0439055e-21 0.041476994 2.8424219e-21
5.0439055e-21 0.041476994 3.9570971e-21
5.0439055e-21 0.041476994 5.0717724e-21
5.0439055e-21 0.041476994 6.1864477e-21
5.0439055e-21 0.041476994 7.3011229e-21
3.6729032e-19 -0.032878748 2.0988018e-19
3.6729032e-19 -0.032878748 2.9060333e-19
3.6729032e-19 -0.032878748 3.7132648e-19
3.6729032e-19 -0.032878748 4.5204963e-19
3.6729032e-19 -0.032878748 5.3277277e-19
-1.6599176e-19 0.18139054 -9.6148234e-20
-1.6599176e-19 0.18139054 -1.3243059e-19
-1.6599176e-19 0.18139054 -1.6871294e-19
-1.6599176e-19 0.18139054 -2.0499529e-19
-1.6599176e-19 0.18139054 -2.4127764e-19
-5.9676761e-20 -0.05780235 -3.5027664e-20
-5.9676761e-20 -0.05780235 -4.8000873e-20
-5.9676761e-20 -0.05780235 -6.0974082e-20
-5.9676761e-20 -0.05780235 -7.3947291e-20
-5.9676761e-20 -0.05780235 -8.69205e-20
5.5723258e-19 -0.14233406 2.5328754e-19
5.5723258e-19 -0.14233406 3.5460255e-19
5.5723258e-19 -0.14233406 4.5591757e-19
5.5723258e-19 -0.14233406 5.5723258e-19
5.5723258e-19 -0.14233406 6.5854759e-19
6.1585808e-21 0.041476994 2.8424219e-21
6.1585808e-21 0.041476994 3.9570971e-21
6.1585808e-21 0.041476994 5.0717724e-21
6.1585808e-21 0.041476994 6.1864477e-21
6.1585808e-21 0.041476994 7.3011229e-21
4.4801347e-19 -0.032878748 2.0988018e-19
4.4801347e-19 -0.032878748 2.9060333e-19
4.4801347e-19 -0.032878748 3.7132648e-19
4.4801347e-19 -0.032878748 4.5204963e-19
4.4801347e-19 -0.032878748 5.3277277e-19
-2.0227411e-19 0.18139054 -9.6148234e-20
-2.0227411e-19 0.18139054 -1.3243059e-19
-2.0227411e-19 0.18139054 -1.6871294e-19
-2.0227411e-19 0.18139054 -2.0499529e-19
-2.0227411e-19 0.18139054 -2.4127764e-19
-7.264997e-20 -0.05780235 -3.5027664e-20
-7.264997e-20 -0.05780235 -4.8000873e-20
-7.264997e-20 -0.05780235 -6.0974082e-20
-7.264997e-20 -0.05780235 -7.3947291e-20
-7.264997e-20 -0.05780235 -8.69205e-20
6.5854759e-19 -0.14233406 2.5328754e-19
6.5854759e-19 -0.14233406 3.5460255e-19
6.5854759e-19 -0.14233406 4.5591757e-19
6.5854759e-19 -0.14233406 5.5723258e-19
6.5854759e-19 -0.14233406 6.5854759e-19
7.273256e-21 0.041476994 2.8424219e-21
7.273256e-21 0.041476994 3.9570971e-21
7.273256e-21 0.041476994 5.0717724e-21
7.273256e-21 0.041476994 6.1864477e-21
7.273256e-21 0.041476994 7.3011229e-21
5.2873662e-19 -0.032878748 2.0988018e-19
5.2873662e-19 -0.032878748 2.9060333e-19
5.2873662e-19 -0.032878748 3.7132648e-19
5.2873662e-19 -0.032878748 4.5204963e-19
5.2873662e-19 -0.032878748 5.3277277e-19
-2.3855647e-19 0.18139054 -9.6148234e-20
-2.3855647e-19 0.18139054 -1.3243059e-19
-2.3855647e-19 0.18139054 -1.6871294e-19
-2.3855647e-19 0.18139054 -2.0499529e-19
-2.3855647e-19 0.18139054 -2.4127764e-19
-8.5623179e-20 -0.05780235 -3.5027664e-20
-8.5623179e-20 -0.05780235 -4.8000873e-20
-8.5623179e-20 -0.05780235 -6.0974082e-20
-8.5623179e-20 -0.05780235 -7.3947291e-20
-8.5623179e-20 -0.05780235 -8.69205e-20
VECTORS q double
1 -1.0491769e-13 2.3816709e-29
1 -1.0491769e-13 3.334149e-29
1 -1.0491769e-13 4.2866348e-29
1 -1.0491769e-13 5.2394482e-29
1 -1.0491769e-13 6.1921373e-29
1 -3.9294871e-16 1.5089497e-33
1 -3.9294871e-16 2.1079904e-33
1 -3.9294871e-16 2.6986126e-33
1 -3.9294871e-16 3.3000681e-33
1 -3.9294871e-16 3.8747338e-33
1 -9.4964823e-14 1.7766659e-29
1 -9.4964823e-14 2.4601604e-29
1 -9.4964823e-14 3.1425889e-29
1 -9.4964823e-14 3.8265482e-29
1 -9.4964823e-14 4.5113496e-29
1 6.7503336e-14 6.7452276e-30
1 6.7503336e-14 9.2822032e-30
1 6.7503336e-14 1.1837098e-29
1 6.7503336e-14 1.4383922e-29
1 6.7503336e-14 1.6916944e-29
1 1.9791418e-14 6.9904064e-31
1 1.9791418e-14 9.5451214e-31
1 1.9791418e-14 1.2142547e-30
1 1.9791418e-14 1.4718709e-30
1 1.9791418e-14 1.728253e-30
1 -1.4688477e-13 3.3345699e-29
1 -1.4688477e-13 4.6682026e-29
1 -1.4688477e-13 6.0013134e-29
1 -1.4688477e-13 7.335668e-29
1 -1.4688477e-13 8.6692629e-29
1 -5.4857197e-16 2.1054255e-33
1 -5.4857197e-16 2.9373034e-33
1 -5.4857197e-16 3.7694509e-33
1 -5.4857197e-16 4.6196539e-33
1 -5.4857197e-16 5.3991707e-33
1 -1.3220593e-13 2.4727037e-29
1 -1.3220593e-13 3.4240414e-29
1 -1.3220593e-13 4.3740615e-29
1 -1.3220593e-13 5.3261406e-29
1 -1.3220593e-13 6.2790621e-29
1 9.3718224e-14 9.3651668e-30
1 9.3718224e-14 1.2887685e-29
1 9.3718224e-14 1.6435079e-29
1 9.3718224e-14 1.9972802e-29
1 9.3718224e-14 2.3489958e-29
1 2.7403502e-14 9.6803913e-31
1 2.7403502e-14 1.3220903e-30
1 2.7403502e-14 1.6827332e-30
1 2.7403502e-14 2.0394858e-30
1 2.7403502e-14 2.3940802e-30
1 -1.8885185e-13 4.28742e-29
1 -1.8885185e-13 6.0019959e-29
1 -1.8885185e-13 7.7167645e-29
1 -1.8885185e-13 9.4319032e-29
1 -1.8885185e-13 1.1146471e-28
1 -7.0419522e-16 2.7057471e-33
1 -7.0419522e-16 3.7670317e-33
1 -7.0419522e-16 4.8291489e-33
1 -7.0419522e-16 5.9093216e-33
1 -7.0419522e-16 6.9561618e-33
1 -1.6944704e-13 3.1713431e-29
1 -1.6944704e-13 4.3914815e-29
1 -1.6944704e-13 5.609432e-29
1 -1.6944704e-13 6.83068e-29
1 -1.6944704e-13 8.0530845e-29
1 1.1993311e-13 1.1982351e-29
1 1.1993311e-13 1.6489182e-29
1 1.1993311e-13 2.102685e-29
1 1.1993311e-13 2.5554288e-29
1 1.1993311e-13 3.0052486e-29
1 3.5015586e-14 1.2370686e-30
1 3.5015586e-14 1.6892719e-30
1 3.5015586e-14 2.1494198e-30
1 3.5015586e-14 2.6046601e-30
1 3.5015586e-14 3.0585761e-30
1 -2.3081893e-13 5.2398633e-29
1 -2.3081893e-13 7.3355487e-29
1 -2.3081893e-13 9.4311148e-29
1 -2.3081893e-13 1.1527382e-28
1 -2.3081893e-13 1.3622388e-28
1 -8.5981847e-16 3.3013924e-33
1 -8.5981847e-16 4.6177226e-33
1 -8.5981847e-16 5.8975316e-33
1 -8.5981847e-16 7.2298825e-33
1 -8.5981847e-16 8.4738098e-33
1 -2.0668814e-13 3.8681943e-29
1 -2.0668814e-13 5.3564026e-29
1 -2.0668814e-13 6.8422117e-29
1 -2.0668814e-13 8.3314773e-29
1 -2.0668814e-13 9.822821e-29
1 1.46148e-13 1.4605351e-29
1 1.46148e-13 2.0097579e-29
1 1.46148e-13 2.5630391e-29
1 1.46148e-13 3.1145947e-29
1 1.46148e-13 3.6630056e-29
1 4.262767e-14 1.505969e-30
1 4.262767e-14 2.0563384e-30
1 4.262767e-14 2.6172764e-30
1 4.262767e-14 3.1715412e-30
1 4.262767e-14 3.7243002e-30
1 -2.7278601e-13 6.1924809e-29
1 -2.7278601e-13 8.669314e-29
1 -2.7278601e-13 1.114537e-28
1 -2.7278601e-13 1.3623346e-28
1 -2.7278601e-13 1.610088e-28
1 -1.0154417e-15 3.9282016e-33
1 -1.0154417e-15 5.469244e-33
1 -1.0154417e-15 7.0283145e-33
1 -1.0154417e-15 8.5841351e-33
1 -1.0154417e-15 1.0071011e-32
1 -2.4392925e-13 4.5642459e-29
1 -2.4392925e-13 6.3205649e-29
1 -2.4392925e-13 8.0733069e-29
1 -2.4392925e-13 9.8309694e-29
1 -2.4392925e-13 1.1590473e-28
1 1.7236289e-13 1.7221445e-29
1 1.7236289e-13 2.3703647e-29
1 1.7236289e-13 3.0223961e-29
1 1.7236289e-13 3.6728444e-29
1 1.7236289e-13 4.319716e-29
1 5.0239754e-14 1.777245e-30
1 5.0239754e-14 2.4274035e-30
1 5.0239754e-14 3.0876004e-30
1 5.0239754e-14 3.7423787e-30
1 5.0239754e-14 4.3944787e-30
