# vtk DataFile Version 4.0
hesp visualization file
ASCII
DATASET UNSTRUCTURED_GRID
POINTS 125 double
0.5 0.2590294 0.5
0.5 0.2590294 0.7
0.5 0.2590294 0.9
0.5 0.2590294 1.1
0.5 0.2590294 1.3
0.505 0.2637529 0.51
0.505 0.2637529 0.71
0.505 0.2637529 0.91
0.505 0.2637529 1.11
0.505 0.2637529 1.31
0.51 0.21255105 0.52
0.51 0.21255105 0.72
0.51 0.21255105 0.92
0.51 0.21255105 1.12
0.51 0.21255105 1.32
0.515 0.25755684 0.53
0.515 0.25755684 0.73
0.515 0.25755684 0.93
0.515 0.25755684 1.13
0.515 0.25755684 1.33
0.52 0.2601648 0.54
0.52 0.2601648 0.74
0.52 0.2601648 0.94
0.52 0.2601648 1.14
0.52 0.2601648 1.34
0.7 0.2590294 0.5
0.7 0.2590294 0.7
0.7 0.2590294 0.9
0.7 0.2590294 1.1
0.7 0.2590294 1.3
0.705 0.2637529 0.51
0.705 0.2637529 0.71
0.705 0.2637529 0.91
0.705 0.2637529 1.11
0.705 0.2637529 1.31
0.71 0.21255105 0.52
0.71 0.21255105 0.72
0.71 0.21255105 0.92
0.71 0.21255105 1.12
0.71 0.21255105 1.32
0.715 0.25755684 0.53
0.715 0.25755684 0.73
0.715 0.25755684 0.93
0.715 0.25755684 1.13
0.715 0.25755684 1.33
0.72 0.2601648 0.54
0.72 0.2601648 0.74
0.72 0.2601648 0.94
0.72 0.2601648 1.14
0.72 0.2601648 1.34
0.9 0.2590294 0.5
0.9 0.2590294 0.7
0.9 0.2590294 0.9
0.9 0.2590294 1.1
0.9 0.2590294 1.3
0.905 0.2637529 0.51
0.905 0.2637529 0.71
0.905 0.2637529 0.91
0.905 0.2637529 1.11
0.905 0.2637529 1.31
0.91 0.21255105 0.52
0.91 0.21255105 0.72
0.91 0.21255105 0.92
0.91 0.21255105 1.12
0.91 0.21255105 1.32
0.915 0.25755684 0.53
0.915 0.25755684 0.73
0.915 0.25755684 0.93
0.915 0.25755684 1.13
0.915 0.25755684 1.33
0.92 0.2601648 0.54
0.92 0.2601648 0.74
0.92 0.2601648 0.94
0.92 0.2601648 1.14
0.92 0.2601648 1.34
1.1 0.2590294 0.5
1.1 0.2590294 0.7
1.1 0.2590294 0.9
1.1 0.2590294 1.1
1.1 0.2590294 1.3
1.105 0.2637529 0.51
1.105 0.2637529 0.71
1.105 0.2637529 0.91
1.105 0.2637529 1.11
1.105 0.2637529 1.31
1.11 0.21255105 0.52
1.11 0.21255105 0.72
1.11 0.21255105 0.92
1.11 0.21255105 1.12
1.11 0.21255105 1.32
1.115 0.25755684 0.53
1.115 0.25755684 0.73
1.115 0.25755684 0.93
1.115 0.25755684 1.13
1.115 0.25755684 1.33
1.12 0.2601648 0.54
1.12 0.2601648 0.74
1.12 0.2601648 0.94
1.12 0.2601648 1.14
1.12 0.2601648 1.34
1.3 0.2590294 0.5
1.3 0.2590294 0.7
1.3 0.2590294 0.9
1.3 0.2590294 1.1
1.3 0.2590294 1.3
1.305 0.2637529 0.51
1.305 0.2637529 0.71
1.305 0.2637529 0.91
1.305 0.2637529 1.11
1.305 0.2637529 1.31
1.31 0.21255105 0.52
1.31 0.21255105 0.72
1.31 0.21255105 0.92
1.31 0.21255105 1.12
1.31 0.21255105 1.32
1.315 0.25755684 0.53
1.315 0.25755684 0.73
1.315 0.25755684 0.93
1.315 0.25755684 1.13
1.315 0.25755684 1.33
1.32 0.2601648 0.54
1.32 0.2601648 0.74
1.32 0.2601648 0.94
1.32 0.2601648 1.14
1.32 0.2601648 1.34
CELLS 0 0
CELL_TYPES 0
POINT_DATA 125
SCALARS m double
LOOKUP_TABLE default
1
1
1
1
1
1
1
1
1
1
1
1
1
1
1
1
1
1
1
1
1
1
1
1
1
1
1
1
1
1
1
1
1
1
1
1
1
1
1
1
1
1
1
1
1
1
1
1
1
1
1
1
1
1
1
1
1
1
1
1
1
1
1
1
1
1
1
1
1
1
1
1
1
1
1
1
1
1
1
1
1
1
1
1
1
1
1
1
1
1
1
1
1
1
1
1
1
1
1
1
1
1
1
1
1
1
1
1
1
1
1
1
1
1
1
1
1
1
1
1
1
1
1
1
1
SCALARS r double
LOOKUP_TABLE default
0.1
0.1
0.1
0.1
0.1
0.1
0.1
0.1
0.1
0.1
0.1
0.1
0.1
0.1
0.1
0.1
0.1
0.1
0.1
0.1
0.1
0.1
0.1
0.1
0.1
0.1
0.1
0.1
0.1
0.1
0.1
0.1
0.1
0.1
0.1
0.1
0.1
0.1
0.1
0.1
0.1
0.1
0.1
0.1
0.1
0.1
0.1
0.1
0.1
0.1
0.1
0.1
0.1
0.1
0.1
0.1
0.1
0.1
0.1
0.1
0.1
0.1
0.1
0.1
0.1
0.1
0.1
0.1
0.1
0.1
0.1
0.1
0.1
0.1
0.1
0.1
0.1
0.1
0.1
0.1
0.1
0.1
0.1
0.1
0.1
0.1
0.1
0.1
0.1
0.1
0.1
0.1
0.1
0.1
0.1
0.1
0.1
0.1
0.1
0.1
0.1
0.1
0.1
0.1
0.1
0.1
0.1
0.1
0.1
0.1
0.1
0.1
0.1
0.1
0.1
0.1
0.1
0.1
0.1
0.1
0.1
0.1
0.1
0.1
0.1
VECTORS v double
4.4088808e-19 -0.15110846 4.4088808e-19
4.4088808e-19 -0.15110846 6.1724331e-19
4.4088808e-19 -0.15110846 7.9359854e-19
4.4088808e-19 -0.15110846 9.6995377e-19
4.4088808e-19 -0.15110846 1.146309e-18
4.1489933e-20 0.0014564227 4.1900725e-20
4.1489933e-20 0.0014564227 5.8332382e-20
4.1489933e-20 0.0014564227 7.4764038e-20
4.1489933e-20 0.0014564227 9.1195695e-20
4.1489933e-20 0.0014564227 1.0762735e-19
3.6952051e-19 0.08370915 3.7676601e-19
3.6952051e-19 0.08370915 5.2167601e-19
3.6952051e-19 0.08370915 6.6658601e-19
3.6952051e-19 0.08370915 8.1149602e-19
3.6952051e-19 0.08370915 9.5640602e-19
-1.3433669e-19 0.12352149 -1.3824941e-19
-1.3433669e-19 0.12352149 -1.9041899e-19
-1.3433669e-19 0.12352149 -2.4258858e-19
-1.3433669e-19 0.12352149 -2.9475817e-19
-1.3433669e-19 0.12352149 -3.4692776e-19
-3.6776309e-20 -0.068750689 -3.8190782e-20
-3.6776309e-20 -0.068750689 -5.2335517e-20
-3.6776309e-20 -0.068750689 -6.6480251e-20
-3.6776309e-20 -0.068750689 -8.0624985e-20
-3.6776309e-20 -0.068750689 -9.4769719e-20
6.1724331e-19 -0.15110846 4.4088808e-19
6.1724331e-19 -0.15110846 6.1724331e-19
6.1724331e-19 -0.15110846 7.9359854e-19
6.1724331e-19 -0.15110846 9.6995377e-19
6.1724331e-19 -0.15110846 1.146309e-18
5.792159e-20 0.0014564227 4.1900725e-20
5.792159e-20 0.0014564227 5.8332382e-20
5.792159e-20 0.0014564227 7.4764038e-20
5.792159e-20 0.0014564227 9.1195695e-20
5.792159e-20 0.0014564227 1.0762735e-19
5.1443051e-19 0.08370915 3.7676601e-19
5.1443051e-19 0.08370915 5.2167601e-19
5.1443051e-19 0.08370915 6.6658601e-19
5.1443051e-19 0.08370915 8.1149602e-19
5.1443051e-19 0.08370915 9.5640602e-19
-1.8650628e-19 0.12352149 -1.3824941e-19
-1.8650628e-19 0.12352149 -1.9041899e-19
-1.8650628e-19 0.12352149 -2.4258858e-19
-1.8650628e-19 0.12352149 -2.9475817e-19
-1.8650628e-19 0.12352149 -3.4692776e-19
-5.0921043e-20 -0.068750689 -3.8190782e-20
-5.0921043e-20 -0.068750689 -5.2335517e-20
-5.0921043e-20 -0.068750689 -6.6480251e-20
-5.0921043e-20 -0.068750689 -8.0624985e-20
-5.0921043e-20 -0.068750689 -9.4769719e-20
7.9359854e-19 -0.15110846 4.4088808e-19
7.9359854e-19 -0.15110846 6.1724331e-19
7.9359854e-19 -0.15110846 7.9359854e-19
7.9359854e-19 -0.15110846 9.6995377e-19
7.9359854e-19 -0.15110846 1.146309e-18
7.4353247e-20 0.0014564227 4.1900725e-20
7.4353247e-20 0.0014564227 5.8332382e-20
7.4353247e-20 0.0014564227 7.4764038e-20
7.4353247e-20 0.0014564227 9.1195695e-20
7.4353247e-20 0.0014564227 1.0762735e-19
6.5934051e-19 0.08370915 3.7676601e-19
6.5934051e-19 0.08370915 5.2167601e-19
6.5934051e-19 0.08370915 6.6658601e-19
6.5934051e-19 0.08370915 8.1149602e-19
6.5934051e-19 0.08370915 9.5640602e-19
-2.3867586e-19 0.12352149 -1.3824941e-19
-2.3867586e-19 0.12352149 -1.9041899e-19
-2.3867586e-19 0.12352149 -2.4258858e-19
-2.3867586e-19 0.12352149 -2.9475817e-19
-2.3867586e-19 0.12352149 -3.4692776e-19
-6.5065777e-20 -0.068750689 -3.8190782e-20
-6.5065777e-20 -0.068750689 -5.2335517e-20
-6.5065777e-20 -0.068750689 -6.6480251e-20
-6.5065777e-20 -0.068750689 -8.0624985e-20
-6.5065777e-20 -0.068750689 -9.4769719e-20
9.6995377e-19 -0.15110846 4.4088808e-19
9.6995377e-19 -0.15110846 6.1724331e-19
9.6995377e-19 -0.15110846 7.9359854e-19
9.6995377e-19 -0.15110846 9.6995377e-19
9.6995377e-19 -0.15110846 1.146309e-18
9.0784904e-20 0.0014564227 4.1900725e-20
9.0784904e-20 0.0014564227 5.8332382e-20
9.0784904e-20 0.0014564227 7.4764038e-20
9.0784904e-20 0.0014564227 9.1195695e-20
9.0784904e-20 0.0014564227 1.0762735e-19
8.0425052e-19 0.08370915 3.7676601e-19
8.0425052e-19 0.08370915 5.2167601e-19
8.0425052e-19 0.08370915 6.6658601e-19
8.0425052e-19 0.08370915 8.1149602e-19
8.0425052e-19 0.08370915 9.5640602e-19
-2.9084545e-19 0.12352149 -1.3824941e-19
-2.9084545e-19 0.12352149 -1.9041899e-19
-2.9084545e-19 0.12352149 -2.4258858e-19
-2.9084545e-19 0.12352149 -2.9475817e-19
-2.9084545e-19 0.12352149 -3.4692776e-19
-7.9210512e-20 -0.068750689 -3.8190782e-20
-7.9210512e-20 -0.068750689 -5.2335517e-20
-7.9210512e-20 -0.068750689 -6.6480251e-20
-7.9210512e-20 -0.068750689 -8.0624985e-20
-7.9210512e-20 -0.068750689 -9.4769719e-20
1.146309e-18 -0.15110846 4.4088808e-19
1.146309e-18 -0.15110846 6.1724331e-19
1.146309e-18 -0.15110846 7.9359854e-19
1.146309e-18 -0.15110846 9.6995377e-19
1.146309e-18 -0.15110846 1.146309e-18
1.0721656e-19 0.0014564227 4.1900725e-20
1.0721656e-19 0.0014564227 5.8332382e-20
1.0721656e-19 0.0014564227 7.4764038e-20
1.0721656e-19 0.0014564227 9.1195695e-20
1.0721656e-19 0.0014564227 1.0762735e-19
9.4916052e-19 0.08370915 3.7676601e-19
9.4916052e-19 0.08370915 5.2167601e-19
9.4916052e-19 0.08370915 6.6658601e-19
9.4916052e-19 0.08370915 8.1149602e-19
9.4916052e-19 0.08370915 9.5640602e-19
-3.4301504e-19 0.12352149 -1.3824941e-19
-3.4301504e-19 0.12352149 -1.9041899e-19
-3.4301504e-19 0.12352149 -2.4258858e-19
-3.4301504e-19 0.12352149 -2.9475817e-19
-3.4301504e-19 0.12352149 -3.4692776e-19
-9.3355246e-20 -0.068750689 -3.8190782e-20
-9.3355246e-20 -0.068750689 -5.2335517e-20
-9.3355246e-20 -0.068750689 -6.6480251e-20
-9.3355246e-20 -0.068750689 -8.0624985e-20
-9.3355246e-20 -0.068750689 -9.4769719e-20
VECTORS q double
1 -2.9327763e-13 1.1894112e-28
1 -2.9327763e-13 1.6651773e-28
1 -2.9327763e-13 2.1408874e-28
1 -2.9327763e-13 2.6167063e-28
1 -2.9327763e-13 3.09254e-28
1 -9.8930171e-15 4.0529165e-31
1 -9.8930171e-15 5.649916e-31
1 -9.8930171e-15 7.23383e-31
1 -9.8930171e-15 8.8356847e-31
1 -9.8930171e-15 1.0414608e-30
1 -2.4390163e-13 7.9561841e-29
1 -2.4390163e-13 1.1016428e-28
1 -2.4390163e-13 1.4073561e-28
1 -2.4390163e-13 1.7135072e-28
1 -2.4390163e-13 2.019993e-28
1 1.3860201e-13 1.9346292e-29
1 1.3860201e-13 2.662792e-29
1 1.3860201e-13 3.3950791e-29
1 1.3860201e-13 4.1256282e-29
1 1.3860201e-13 4.8531956e-29
1 4.0955429e-14 1.5596328e-30
1 4.0955429e-14 2.1271343e-30
1 4.0955429e-14 2.709643e-30
1 4.0955429e-14 3.2814008e-30
1 4.0955429e-14 3.8540684e-30
1 -4.1058869e-13 1.6651793e-28
1 -4.1058869e-13 2.3312655e-28
1 -4.1058869e-13 2.9973132e-28
1 -4.1058869e-13 3.663385e-28
1 -4.1058869e-13 4.3294948e-28
1 -1.3811044e-14 5.6574799e-31
1 -1.3811044e-14 7.8879995e-31
1 -1.3811044e-14 1.0099362e-30
1 -1.3811044e-14 1.2338585e-30
1 -1.3811044e-14 1.4535331e-30
1 -3.3954933e-13 1.1075248e-28
1 -3.3954933e-13 1.5335321e-28
1 -3.3954933e-13 1.9591581e-28
1 -3.3954933e-13 2.3853197e-28
1 -3.3954933e-13 2.8119008e-28
1 1.9242804e-13 2.6861792e-29
1 1.9242804e-13 3.6972678e-29
1 1.9242804e-13 4.7141754e-29
1 1.9242804e-13 5.7286256e-29
1 1.9242804e-13 6.7388579e-29
1 5.6707518e-14 2.158998e-30
1 5.6707518e-14 2.945215e-30
1 5.6707518e-14 3.7536599e-30
1 5.6707518e-14 4.5452187e-30
1 5.6707518e-14 5.3366083e-30
1 -5.2789974e-13 2.1410045e-28
1 -5.2789974e-13 2.9972665e-28
1 -5.2789974e-13 3.8537133e-28
1 -5.2789974e-13 4.7101844e-28
1 -5.2789974e-13 5.5666074e-28
1 -1.772907e-14 7.2663948e-31
1 -1.772907e-14 1.013213e-30
1 -1.772907e-14 1.2970149e-30
1 -1.772907e-14 1.5845006e-30
1 -1.772907e-14 1.8674605e-30
1 -4.3519702e-13 1.4199528e-28
1 -4.3519702e-13 1.96611e-28
1 -4.3519702e-13 2.5117028e-28
1 -4.3519702e-13 3.0581509e-28
1 -4.3519702e-13 3.6051317e-28
1 2.4625406e-13 3.4369512e-29
1 2.4625406e-13 4.7305789e-29
1 2.4625406e-13 6.0314872e-29
1 2.4625406e-13 7.3296162e-29
1 2.4625406e-13 8.6218899e-29
1 7.2459606e-14 2.7611509e-30
1 7.2459606e-14 3.7660043e-30
1 7.2459606e-14 4.7984133e-30
1 7.2459606e-14 5.8094935e-30
1 7.2459606e-14 6.8234174e-30
1 -6.452108e-13 2.6166979e-28
1 -6.452108e-13 3.6634022e-28
1 -6.452108e-13 4.7099814e-28
1 -6.452108e-13 5.7567583e-28
1 -6.452108e-13 6.8034234e-28
1 -2.1647097e-14 8.8698345e-31
1 -2.1647097e-14 1.2365333e-30
1 -2.1647097e-14 1.5826995e-30
1 -2.1647097e-14 1.933888e-30
1 -2.1647097e-14 2.2787254e-30
1 -5.3084472e-13 1.7321327e-28
1 -5.3084472e-13 2.3983152e-28
1 -5.3084472e-13 3.0639161e-28
1 -5.3084472e-13 3.7305612e-28
1 -5.3084472e-13 4.3977107e-28
1 3.0008009e-13 4.1890181e-29
1 3.0008009e-13 5.7655408e-29
1 3.0008009e-13 7.3512525e-29
1 3.0008009e-13 8.9332242e-29
1 3.0008009e-13 1.0508353e-28
1 8.8211694e-14 3.3602464e-30
1 8.8211694e-14 4.5832773e-30
1 8.8211694e-14 5.84086e-30
1 8.8211694e-14 7.0710545e-30
1 8.8211694e-14 8.3059566e-30
1 -7.6252185e-13 3.0923855e-28
1 -7.6252185e-13 4.3294153e-28
1 -7.6252185e-13 5.5661769e-28
1 -7.6252185e-13 6.8033717e-28
1 -7.6252185e-13 8.0406194e-28
1 -2.5565123e-14 1.0481823e-30
1 -2.5565123e-14 1.4610005e-30
1 -2.5565123e-14 1.8706875e-30
1 -2.5565123e-14 2.28472e-30
1 -2.5565123e-14 2.6922949e-30
1 -6.2649242e-13 2.0438677e-28
1 -6.2649242e-13 2.8300417e-28
1 -6.2649242e-13 3.6153376e-28
1 -6.2649242e-13 4.4020009e-28
1 -6.2649242e-13 5.1892039e-28
1 3.5390611e-13 4.9401174e-29
1 3.5390611e-13 6.8005494e-29
1 3.5390611e-13 8.6698949e-29
1 3.5390611e-13 1.0535563e-28
1 3.5390611e-13 1.2393604e-28
1 1.0396378e-13 3.9681523e-30
1 1.0396378e-13 5.4134801e-30
1 1.0396378e-13 6.895319e-30
1 1.0396378e-13 8.349386e-30
1 1.0396378e-13 9.8070099e-30
