# vtk DataFile Version 4.0
hesp visualization file
ASCII
DATASET UNSTRUCTURED_GRID
POINTS 125 double
0.5 0.24685324 0.5
0.5 0.24685324 0.7
0.5 0.24685324 0.9
0.5 0.24685324 1.1
0.5 0.24685324 1.3
0.505 0.21768073 0.51
0.505 0.21768073 0.71
0.505 0.21768073 0.91
0.505 0.21768073 1.11
0.505 0.21768073 1.31
0.51 0.21185812 0.52
0.51 0.21185812 0.72
0.51 0.21185812 0.92
0.51 0.21185812 1.12
0.51 0.21185812 1.32
0.515 0.22123587 0.53
0.515 0.22123587 0.73
0.515 0.22123587 0.93
0.515 0.22123587 1.13
0.515 0.22123587 1.33
0.52 0.23618129 0.54
0.52 0.23618129 0.74
0.52 0.23618129 0.94
0.52 0.23618129 1.14
0.52 0.23618129 1.34
0.7 0.24685324 0.5
0.7 0.24685324 0.7
0.7 0.24685324 0.9
0.7 0.24685324 1.1
0.7 0.24685324 1.3
0.705 0.21768073 0.51
0.705 0.21768073 0.71
0.705 0.21768073 0.91
0.705 0.21768073 1.11
0.705 0.21768073 1.31
0.71 0.21185812 0.52
0.71 0.21185812 0.72
0.71 0.21185812 0.92
0.71 0.21185812 1.12
0.71 0.21185812 1.32
0.715 0.22123587 0.53
0.715 0.22123587 0.73
0.715 0.22123587 0.93
0.715 0.22123587 1.13
0.715 0.22123587 1.33
0.72 0.23618129 0.54
0.72 0.23618129 0.74
0.72 0.23618129 0.94
0.72 0.23618129 1.14
0.72 0.23618129 1.34
0.9 0.24685324 0.5
0.9 0.24685324 0.7
0.9 0.24685324 0.9
0.9 0.24685324 1.1
0.9 0.24685324 1.3
0.905 0.21768073 0.51
0.905 0.21768073 0.71
0.905 0.21768073 0.91
0.905 0.21768073 1.11
0.905 0.21768073 1.31
0.91 0.21185812 0.52
0.91 0.21185812 0.72
0.91 0.21185812 0.92
0.91 0.21185812 1.12
0.91 0.21185812 1.32
0.915 0.22123587 0.53
0.915 0.22123587 0.73
0.915 0.22123587 0.93
0.915 0.22123587 1.13
0.915 0.22123587 1.33
0.92 0.23618129 0.54
0.92 0.23618129 0.74
0.92 0.23618129 0.94
0.92 0.23618129 1.14
0.92 0.23618129 1.34
1.1 0.24685324 0.5
1.1 0.24685324 0.7
1.1 0.24685324 0.9
1.1 0.24685324 1.1
1.1 0.24685324 1.3
1.105 0.21768073 0.51
1.105 0.21768073 0.71
1.105 0.21768073 0.91
1.105 0.21768073 1.11
1.105 0.21768073 1.31
1.11 0.21185812 0.52
1.11 0.21185812 0.72
1.11 0.21185812 0.92
1.11 0.21185812 1.12
1.11 0.21185812 1.32
1.115 0.22123587 0.53
1.115 0.22123587 0.73
1.115 0.22123587 0.93
1.115 0.22123587 1.13
1.115 0.22123587 1.33
1.12 0.23618129 0.54
1.12 0.23618129 0.74
1.12 0.23618129 0.94
1.12 0.23618129 1.14
1.12 0.23618129 1.34
1.3 0.24685324 0.5
1.3 0.24685324 0.7
1.3 0.24685324 0.9
1.3 0.24685324 1.1
1.3 0.24685324 1.3
1.305 0.21768073 0.51
1.305 0.21768073 0.71
1.305 0.21768073 0.91
1.305 0.21768073 1.11
1.305 0.21768073 1.31
1.31 0.21185812 0.52
1.31 0.21185812 0.72
1.31 0.21185812 0.92
1.31 0.21185812 1.12
1.31 0.21185812 1.32
1.315 0.22123587 0.53
1.315 0.22123587 0.73
1.315 0.22123587 0.93
1.315 0.22123587 1.13
1.315 0.22123587 1.33
1.32 0.23618129 0.54
1.32 0.23618129 0.74
1.32 0.23618129 0.94
1.32 0.23618129 1.14
1.32 0.23618129 1.34
CELLS 0 0
CELL_TYPES 0
POINT_DATA 125
SCALARS m double
LOOKUP_TABLE default
1
1
1
1
1
1
1
1
1
1
1
1
1
1
1
1
1
1
1
1
1
1
1
1
1
1
1
1
1
1
1
1
1
1
1
1
1
1
1
1
1
1
1
1
1
1
1
1
1
1
1
1
1
1
1
1
1
1
1
1
1
1
1
1
1
1
1
1
1
1
1
1
1
1
1
1
1
1
1
1
1
1
1
1
1
1
1
1
1
1
1
1
1
1
1
1
1
1
1
1
1
1
1
1
1
1
1
1
1
1
1
1
1
1
1
1
1
1
1
1
1
1
1
1
1
SCALARS r double
LOOKUP_TABLE default
0.1
0.1
0.1
0.1
0.1
0.1
0.1
0.1
0.1
0.1
0.1
0.1
0.1
0.1
0.1
0.1
0.1
0.1
0.1
0.1
0.1
0.1
0.1
0.1
0.1
0.1
0.1
0.1
0.1
0.1
0.1
0.1
0.1
0.1
0.1
0.1
0.1
0.1
0.1
0.1
0.1
0.1
0.1
0.1
0.1
0.1
0.1
0.1
0.1
0.1
0.1
0.1
0.1
0.1
0.1
0.1
0.1
0.1
0.1
0.1
0.1
0.1
0.1
0.1
0.1
0.1
0.1
0.1
0.1
0.1
0.1
0.1
0.1
0.1
0.1
0.1
0.1
0.1
0.1
0.1
0.1
0.1
0.1
0.1
0.1
0.1
0.1
0.1
0.1
0.1
0.1
0.1
0.1
0.1
0.1
0.1
0.1
0.1
0.1
0.1
0.1
0.1
0.1
0.1
0.1
0.1
0.1
0.1
0.1
0.1
0.1
0.1
0.1
0.1
0.1
0.1
0.1
0.1
0.1
0.1
0.1
0.1
0.1
0.1
0.1
VECTORS v double
4.9174658e-19 0.18134338 4.9174658e-19
4.9174658e-19 0.18134338 6.8844521e-19
4.9174658e-19 0.18134338 8.8514384e-19
4.9174658e-19 0.18134338 1.0818425e-18
4.9174658e-19 0.18134338 1.2785411e-18
6.2445322e-20 0.33118017 6.3063593e-20
6.2445322e-20 0.33118017 8.7794413e-20
6.2445322e-20 0.33118017 1.1252523e-19
6.2445322e-20 0.33118017 1.3725605e-19
6.2445322e-20 0.33118017 1.6198688e-19
3.904237e-19 0.012703976 3.9807907e-19
3.904237e-19 0.012703976 5.511864e-19
3.904237e-19 0.012703976 7.0429373e-19
3.904237e-19 0.012703976 8.5740107e-19
3.904237e-19 0.012703976 1.0105084e-18
-1.3433669e-19 -0.29647851 -1.3824941e-19
-1.3433669e-19 -0.29647851 -1.9041899e-19
-1.3433669e-19 -0.29647851 -2.4258858e-19
-1.3433669e-19 -0.29647851 -2.9475817e-19
-1.3433669e-19 -0.29647851 -3.4692776e-19
-3.7579791e-20 0.25375104 -3.9025168e-20
-3.7579791e-20 0.25375104 -5.3478934e-20
-3.7579791e-20 0.25375104 -6.79327e-20
-3.7579791e-20 0.25375104 -8.2386466e-20
-3.7579791e-20 0.25375104 -9.6840232e-20
6.8844521e-19 0.18134338 4.9174658e-19
6.8844521e-19 0.18134338 6.8844521e-19
6.8844521e-19 0.18134338 8.8514384e-19
6.8844521e-19 0.18134338 1.0818425e-18
6.8844521e-19 0.18134338 1.2785411e-18
8.7176143e-20 0.33118017 6.3063593e-20
8.7176143e-20 0.33118017 8.7794413e-20
8.7176143e-20 0.33118017 1.1252523e-19
8.7176143e-20 0.33118017 1.3725605e-19
8.7176143e-20 0.33118017 1.6198688e-19
5.4353103e-19 0.012703976 3.9807907e-19
5.4353103e-19 0.012703976 5.511864e-19
5.4353103e-19 0.012703976 7.0429373e-19
5.4353103e-19 0.012703976 8.5740107e-19
5.4353103e-19 0.012703976 1.0105084e-18
-1.8650628e-19 -0.29647851 -1.3824941e-19
-1.8650628e-19 -0.29647851 -1.9041899e-19
-1.8650628e-19 -0.29647851 -2.4258858e-19
-1.8650628e-19 -0.29647851 -2.9475817e-19
-1.8650628e-19 -0.29647851 -3.4692776e-19
-5.2033557e-20 0.25375104 -3.9025168e-20
-5.2033557e-20 0.25375104 -5.3478934e-20
-5.2033557e-20 0.25375104 -6.79327e-20
-5.2033557e-20 0.25375104 -8.2386466e-20
-5.2033557e-20 0.25375104 -9.6840232e-20
8.8514384e-19 0.18134338 4.9174658e-19
8.8514384e-19 0.18134338 6.8844521e-19
8.8514384e-19 0.18134338 8.8514384e-19
8.8514384e-19 0.18134338 1.0818425e-18
8.8514384e-19 0.18134338 1.2785411e-18
1.1190696e-19 0.33118017 6.3063593e-20
1.1190696e-19 0.33118017 8.7794413e-20
1.1190696e-19 0.33118017 1.1252523e-19
1.1190696e-19 0.33118017 1.3725605e-19
1.1190696e-19 0.33118017 1.6198688e-19
6.9663837e-19 0.012703976 3.9807907e-19
6.9663837e-19 0.012703976 5.511864e-19
6.9663837e-19 0.012703976 7.0429373e-19
6.9663837e-19 0.012703976 8.5740107e-19
6.9663837e-19 0.012703976 1.0105084e-18
-2.3867586e-19 -0.29647851 -1.3824941e-19
-2.3867586e-19 -0.29647851 -1.9041899e-19
-2.3867586e-19 -0.29647851 -2.4258858e-19
-2.3867586e-19 -0.29647851 -2.9475817e-19
-2.3867586e-19 -0.29647851 -3.4692776e-19
-6.6487323e-20 0.25375104 -3.9025168e-20
-6.6487323e-20 0.25375104 -5.3478934e-20
-6.6487323e-20 0.25375104 -6.79327e-20
-6.6487323e-20 0.25375104 -8.2386466e-20
-6.6487323e-20 0.25375104 -9.6840232e-20
1.0818425e-18 0.18134338 4.9174658e-19
1.0818425e-18 0.18134338 6.8844521e-19
1.0818425e-18 0.18134338 8.8514384e-19
1.0818425e-18 0.18134338 1.0818425e-18
1.0818425e-18 0.18134338 1.2785411e-18
1.3663778e-19 0.33118017 6.3063593e-20
1.3663778e-19 0.33118017 8.7794413e-20
1.3663778e-19 0.33118017 1.1252523e-19
1.3663778e-19 0.33118017 1.3725605e-19
1.3663778e-19 0.33118017 1.6198688e-19
8.497457e-19 0.012703976 3.9807907e-19
8.497457e-19 0.012703976 5.511864e-19
8.497457e-19 0.012703976 7.0429373e-19
8.497457e-19 0.012703976 8.5740107e-19
8.497457e-19 0.012703976 1.0105084e-18
-2.9084545e-19 -0.29647851 -1.3824941e-19
-2.9084545e-19 -0.29647851 -1.9041899e-19
-2.9084545e-19 -0.29647851 -2.4258858e-19
-2.9084545e-19 -0.29647851 -2.9475817e-19
-2.9084545e-19 -0.29647851 -3.4692776e-19
-8.0941089e-20 0.25375104 -3.9025168e-20
-8.0941089e-20 0.25375104 -5.3478934e-20
-8.0941089e-20 0.25375104 -6.79327e-20
-8.0941089e-20 0.25375104 -8.2386466e-20
-8.0941089e-20 0.25375104 -9.6840232e-20
1.2785411e-18 0.18134338 4.9174658e-19
1.2785411e-18 0.18134338 6.8844521e-19
1.2785411e-18 0.18134338 8.8514384e-19
1.2785411e-18 0.18134338 1.0818425e-18
1.2785411e-18 0.18134338 1.2785411e-18
1.613686e-19 0.33118017 6.3063593e-20
1.613686e-19 0.33118017 8.7794413e-20
1.613686e-19 0.33118017 1.1252523e-19
1.613686e-19 0.33118017 1.3725605e-19
1.613686e-19 0.33118017 1.6198688e-19
1.002853e-18 0.012703976 3.9807907e-19
1.002853e-18 0.012703976 5.511864e-19
1.002853e-18 0.012703976 7.0429373e-19
1.002853e-18 0.012703976 8.5740107e-19
1.002853e-18 0.012703976 1.0105084e-18
-3.4301504e-19 -0.29647851 -1.3824941e-19
-3.4301504e-19 -0.29647851 -1.9041899e-19
-3.4301504e-19 -0.29647851 -2.4258858e-19
-3.4301504e-19 -0.29647851 -2.9475817e-19
-3.4301504e-19 -0.29647851 -3.4692776e-19
-9.5394855e-20 0.25375104 -3.9025168e-20
-9.5394855e-20 0.25375104 -5.3478934e-20
-9.5394855e-20 0.25375104 -6.79327e-20
-9.5394855e-20 0.25375104 -8.2386466e-20
-9.5394855e-20 0.25375104 -9.6840232e-20
VECTORS q double
1 -3.2845608e-13 1.4194944e-28
1 -3.2845608e-13 1.987301e-28
1 -3.2845608e-13 2.5550431e-28
1 -3.2845608e-13 3.1228978e-28
1 -3.2845608e-13 3.6907875e-28
1 -1.3759343e-14 7.1578668e-31
1 -1.3759343e-14 9.9747851e-31
1 -1.3759343e-14 1.2772941e-30
1 -1.3759343e-14 1.5599276e-30
1 -1.3759343e-14 1.8391978e-30
1 -2.7169405e-13 9.4662781e-29
1 -2.7169405e-13 1.3107281e-28
1 -2.7169405e-13 1.674487e-28
1 -2.7169405e-13 2.0387287e-28
1 -2.7169405e-13 2.4033645e-28
1 1.5014427e-13 2.1519409e-29
1 1.5014427e-13 2.9619335e-29
1 1.5014427e-13 3.7764475e-29
1 1.5014427e-13 4.5890568e-29
1 1.5014427e-13 5.3984368e-29
1 4.4046862e-14 1.695171e-30
1 4.4046862e-14 2.3116541e-30
1 4.4046862e-14 2.9452145e-30
1 4.4046862e-14 3.5662234e-30
1 4.4046862e-14 4.1887643e-30
1 -4.5983851e-13 1.9872878e-28
1 -4.5983851e-13 2.7822289e-28
1 -4.5983851e-13 3.5771457e-28
1 -4.5983851e-13 4.3720375e-28
1 -4.5983851e-13 5.1670119e-28
1 -1.9208587e-14 9.9892565e-31
1 -1.9208587e-14 1.3922832e-30
1 -1.9208587e-14 1.7829098e-30
1 -1.9208587e-14 2.1777017e-30
1 -1.9208587e-14 2.5664517e-30
1 -3.7824074e-13 1.3177551e-28
1 -3.7824074e-13 1.8246169e-28
1 -3.7824074e-13 2.3310583e-28
1 -3.7824074e-13 2.8380806e-28
1 -3.7824074e-13 3.3455999e-28
1 2.0845272e-13 2.9879398e-29
1 2.0845272e-13 4.1126754e-29
1 2.0845272e-13 5.2437813e-29
1 2.0845272e-13 6.3721685e-29
1 2.0845272e-13 7.496015e-29
1 6.0987963e-14 2.3464739e-30
1 6.0987963e-14 3.2004905e-30
1 6.0987963e-14 4.0797094e-30
1 6.0987963e-14 4.9393935e-30
1 6.0987963e-14 5.7996396e-30
1 -5.9122094e-13 2.5551498e-28
1 -5.9122094e-13 3.5770514e-28
1 -5.9122094e-13 4.5991825e-28
1 -5.9122094e-13 5.6213158e-28
1 -5.9122094e-13 6.6434242e-28
1 -2.4657832e-14 1.2829628e-30
1 -2.4657832e-14 1.788257e-30
1 -2.4657832e-14 2.2897024e-30
1 -2.4657832e-14 2.796529e-30
1 -2.4657832e-14 3.2970326e-30
1 -4.8478743e-13 1.6894359e-28
1 -4.8478743e-13 2.3392269e-28
1 -4.8478743e-13 2.9884059e-28
1 -4.8478743e-13 3.6385301e-28
1 -4.8478743e-13 4.2892696e-28
1 2.6676118e-13 3.8230489e-29
1 2.6676118e-13 5.2620744e-29
1 2.6676118e-13 6.7090838e-29
1 2.6676118e-13 8.1530098e-29
1 2.6676118e-13 9.5906273e-29
1 7.7929064e-14 3.0012453e-30
1 7.7929064e-14 4.0928718e-30
1 7.7929064e-14 5.2158103e-30
1 7.7929064e-14 6.3140661e-30
1 7.7929064e-14 7.4163138e-30
1 -7.2260337e-13 3.1228722e-28
1 -7.2260337e-13 4.372063e-28
1 -7.2260337e-13 5.6211063e-28
1 -7.2260337e-13 6.8703594e-28
1 -7.2260337e-13 8.1195379e-28
1 -3.0107076e-14 1.5659962e-30
1 -3.0107076e-14 2.1823812e-30
1 -3.0107076e-14 2.7940927e-30
1 -3.0107076e-14 3.4131003e-30
1 -3.0107076e-14 4.0233437e-30
1 -5.9133411e-13 2.0608676e-28
1 -5.9133411e-13 2.8534669e-28
1 -5.9133411e-13 3.6454329e-28
1 -5.9133411e-13 4.4385589e-28
1 -5.9133411e-13 5.2322682e-28
1 3.2506963e-13 4.6596017e-29
1 3.2506963e-13 6.4133264e-29
1 3.2506963e-13 8.1770939e-29
1 3.2506963e-13 9.936773e-29
1 3.2506963e-13 1.168904e-28
1 9.4870164e-14 3.6522831e-30
1 9.4870164e-14 4.9809028e-30
1 9.4870164e-14 6.3486506e-30
1 9.4870164e-14 7.6848351e-30
1 9.4870164e-14 9.0272809e-30
1 -8.539858e-13 3.6905692e-28
1 -8.539858e-13 5.1668959e-28
1 -8.539858e-13 6.6429291e-28
1 -8.539858e-13 8.1194087e-28
1 -8.539858e-13 9.5959967e-28
1 -3.5556321e-14 1.8505586e-30
1 -3.5556321e-14 2.5785984e-30
1 -3.5556321e-14 3.3019946e-30
1 -3.5556321e-14 4.0323494e-30
1 -3.5556321e-14 4.7534497e-30
1 -6.978808e-13 2.4317766e-28
1 -6.978808e-13 3.3671292e-28
1 -6.978808e-13 4.3015338e-28
1 -6.978808e-13 5.2374515e-28
1 -6.978808e-13 6.1739891e-28
1 3.8337809e-13 5.4951218e-29
1 3.8337809e-13 7.5646432e-29
1 3.8337809e-13 9.6439389e-29
1 3.8337809e-13 1.1719181e-28
1 3.8337809e-13 1.3786185e-28
1 1.1181127e-13 4.3133744e-30
1 1.1181127e-13 5.8835814e-30
1 1.1181127e-13 7.4954329e-30
1 1.1181127e-13 9.0748945e-30
1 1.1181127e-13 1.0659592e-29
