# vtk DataFile Version 4.0
hesp visualization file
ASCII
DATASET UNSTRUCTURED_GRID
POINTS 125 double
0.5 0.20507703 0.5
0.5 0.20507703 0.7
0.5 0.20507703 0.9
0.5 0.20507703 1.1
0.5 0.20507703 1.3
0.505 0.32495015 0.51
0.505 0.32495015 0.71
0.505 0.32495015 0.91
0.505 0.32495015 1.11
0.505 0.32495015 1.31
0.51 0.37913623 0.52
0.51 0.37913623 0.72
0.51 0.37913623 0.92
0.51 0.37913623 1.12
0.51 0.37913623 1.32
0.515 0.52275962 0.53
0.515 0.52275962 0.73
0.515 0.52275962 0.93
0.515 0.52275962 1.13
0.515 0.52275962 1.33
0.52 0.49545259 0.54
0.52 0.49545259 0.74
0.52 0.49545259 0.94
0.52 0.49545259 1.14
0.52 0.49545259 1.34
0.7 0.20507703 0.5
0.7 0.20507703 0.7
0.7 0.20507703 0.9
0.7 0.20507703 1.1
0.7 0.20507703 1.3
0.705 0.32495015 0.51
0.705 0.32495015 0.71
0.705 0.32495015 0.91
0.705 0.32495015 1.11
0.705 0.32495015 1.31
0.71 0.37913623 0.52
0.71 0.37913623 0.72
0.71 0.37913623 0.92
0.71 0.37913623 1.12
0.71 0.37913623 1.32
0.715 0.52275962 0.53
0.715 0.52275962 0.73
0.715 0.52275962 0.93
0.715 0.52275962 1.13
0.715 0.52275962 1.33
0.72 0.49545259 0.54
0.72 0.49545259 0.74
0.72 0.49545259 0.94
0.72 0.49545259 1.14
0.72 0.49545259 1.34
0.9 0.20507703 0.5
0.9 0.20507703 0.7
0.9 0.20507703 0.9
0.9 0.20507703 1.1
0.9 0.20507703 1.3
0.905 0.32495015 0.51
0.905 0.32495015 0.71
0.905 0.32495015 0.91
0.905 0.32495015 1.11
0.905 0.32495015 1.31
0.91 0.37913623 0.52
0.91 0.37913623 0.72
0.91 0.37913623 0.92
0.91 0.37913623 1.12
0.91 0.37913623 1.32
0.915 0.52275962 0.53
0.915 0.52275962 0.73
0.915 0.52275962 0.93
0.915 0.52275962 1.13
0.915 0.52275962 1.33
0.92 0.49545259 0.54
0.92 0.49545259 0.74
0.92 0.49545259 0.94
0.92 0.49545259 1.14
0.92 0.49545259 1.34
1.1 0.20507703 0.5
1.1 0.20507703 0.7
1.1 0.20507703 0.9
1.1 0.20507703 1.1
1.1 0.20507703 1.3
1.105 0.32495015 0.51
1.105 0.32495015 0.71
1.105 0.32495015 0.91
1.105 0.32495015 1.11
1.105 0.32495015 1.31
1.11 0.37913623 0.52
1.11 0.37913623 0.72
1.11 0.37913623 0.92
1.11 0.37913623 1.12
1.11 0.37913623 1.32
1.115 0.52275962 0.53
1.115 0.52275962 0.73
1.115 0.52275962 0.93
1.115 0.52275962 1.13
1.115 0.52275962 1.33
1.12 0.49545259 0.54
1.12 0.49545259 0.74
1.12 0.49545259 0.94
1.12 0.49545259 1.14
1.12 0.49545259 1.34
1.3 0.20507703 0.5
1.3 0.20507703 0.7
1.3 0.20507703 0.9
1.3 0.20507703 1.1
1.3 0.20507703 1.3
1.305 0.32495015 0.51
1.305 0.32495015 0.71
1.305 0.32495015 0.91
1.305 0.32495015 1.11
1.305 0.32495015 1.31
1.31 0.37913623 0.52
1.31 0.37913623 0.72
1.31 0.37913623 0.92
1.31 0.37913623 1.12
1.31 0.37913623 1.32
1.315 0.52275962 0.53
1.315 0.52275962 0.73
1.315 0.52275962 0.93
1.315 0.52275962 1.13
1.315 0.52275962 1.33
1.32 0.49545259 0.54
1.32 0.49545259 0.74
1.32 0.49545259 0.94
1.32 0.49545259 1.14
1.32 0.49545259 1.34
CELLS 0 0
CELL_TYPES 0
POINT_DATA 125
SCALARS m double
LOOKUP_TABLE default
1
1
1
1
1
1
1
1
1
1
1
1
1
1
1
1
1
1
1
1
1
1
1
1
1
1
1
1
1
1
1
1
1
1
1
1
1
1
1
1
1
1
1
1
1
1
1
1
1
1
1
1
1
1
1
1
1
1
1
1
1
1
1
1
1
1
1
1
1
1
1
1
1
1
1
1
1
1
1
1
1
1
1
1
1
1
1
1
1
1
1
1
1
1
1
1
1
1
1
1
1
1
1
1
1
1
1
1
1
1
1
1
1
1
1
1
1
1
1
1
1
1
1
1
1
SCALARS r double
LOOKUP_TABLE default
0.1
0.1
0.1
0.1
0.1
0.1
0.1
0.1
0.1
0.1
0.1
0.1
0.1
0.1
0.1
0.1
0.1
0.1
0.1
0.1
0.1
0.1
0.1
0.1
0.1
0.1
0.1
0.1
0.1
0.1
0.1
0.1
0.1
0.1
0.1
0.1
0.1
0.1
0.1
0.1
0.1
0.1
0.1
0.1
0.1
0.1
0.1
0.1
0.1
0.1
0.1
0.1
0.1
0.1
0.1
0.1
0.1
0.1
0.1
0.1
0.1
0.1
0.1
0.1
0.1
0.1
0.1
0.1
0.1
0.1
0.1
0.1
0.1
0.1
0.1
0.1
0.1
0.1
0.1
0.1
0.1
0.1
0.1
0.1
0.1
0.1
0.1
0.1
0.1
0.1
0.1
0.1
0.1
0.1
0.1
0.1
0.1
0.1
0.1
0.1
0.1
0.1
0.1
0.1
0.1
0.1
0.1
0.1
0.1
0.1
0.1
0.1
0.1
0.1
0.1
0.1
0.1
0.1
0.1
0.1
0.1
0.1
0.1
0.1
0.1
VECTORS v double
1.6330824e-20 0.65153429 1.6330824e-20
1.6330824e-20 0.65153429 2.2863154e-20
1.6330824e-20 0.65153429 2.9395484e-20
1.6330824e-20 0.65153429 3.5927814e-20
1.6330824e-20 0.65153429 4.2460144e-20
0 0.28735803 0
0 0.28735803 0
0 0.28735803 0
0 0.28735803 0
0 0.28735803 0
0 -0.26560474 0
0 -0.26560474 0
0 -0.26560474 0
0 -0.26560474 0
0 -0.26560474 0
0 0.055525071 0
0 0.055525071 0
0 0.055525071 0
0 0.055525071 0
0 0.055525071 0
0 0.18164768 0
0 0.18164768 0
0 0.18164768 0
0 0.18164768 0
0 0.18164768 0
2.2863154e-20 0.65153429 1.6330824e-20
2.2863154e-20 0.65153429 2.2863154e-20
2.2863154e-20 0.65153429 2.9395484e-20
2.2863154e-20 0.65153429 3.5927814e-20
2.2863154e-20 0.65153429 4.2460144e-20
0 0.28735803 0
0 0.28735803 0
0 0.28735803 0
0 0.28735803 0
0 0.28735803 0
0 -0.26560474 0
0 -0.26560474 0
0 -0.26560474 0
0 -0.26560474 0
0 -0.26560474 0
0 0.055525071 0
0 0.055525071 0
0 0.055525071 0
0 0.055525071 0
0 0.055525071 0
0 0.18164768 0
0 0.18164768 0
0 0.18164768 0
0 0.18164768 0
0 0.18164768 0
2.9395484e-20 0.65153429 1.6330824e-20
2.9395484e-20 0.65153429 2.2863154e-20
2.9395484e-20 0.65153429 2.9395484e-20
2.9395484e-20 0.65153429 3.5927814e-20
2.9395484e-20 0.65153429 4.2460144e-20
0 0.28735803 0
0 0.28735803 0
0 0.28735803 0
0 0.28735803 0
0 0.28735803 0
0 -0.26560474 0
0 -0.26560474 0
0 -0.26560474 0
0 -0.26560474 0
0 -0.26560474 0
0 0.055525071 0
0 0.055525071 0
0 0.055525071 0
0 0.055525071 0
0 0.055525071 0
0 0.18164768 0
0 0.18164768 0
0 0.18164768 0
0 0.18164768 0
0 0.18164768 0
3.5927814e-20 0.65153429 1.6330824e-20
3.5927814e-20 0.65153429 2.2863154e-20
3.5927814e-20 0.65153429 2.9395484e-20
3.5927814e-20 0.65153429 3.5927814e-20
3.5927814e-20 0.65153429 4.2460144e-20
0 0.28735803 0
0 0.28735803 0
0 0.28735803 0
0 0.28735803 0
0 0.28735803 0
0 -0.26560474 0
0 -0.26560474 0
0 -0.26560474 0
0 -0.26560474 0
0 -0.26560474 0
0 0.055525071 0
0 0.055525071 0
0 0.055525071 0
0 0.055525071 0
0 0.055525071 0
0 0.18164768 0
0 0.18164768 0
0 0.18164768 0
0 0.18164768 0
0 0.18164768 0
4.2460144e-20 0.65153429 1.6330824e-20
4.2460144e-20 0.65153429 2.2863154e-20
4.2460144e-20 0.65153429 2.9395484e-20
4.2460144e-20 0.65153429 3.5927814e-20
4.2460144e-20 0.65153429 4.2460144e-20
0 0.28735803 0
0 0.28735803 0
0 0.28735803 0
0 0.28735803 0
0 0.28735803 0
0 -0.26560474 0
0 -0.26560474 0
0 -0.26560474 0
0 -0.26560474 0
0 -0.26560474 0
0 0.055525071 0
0 0.055525071 0
0 0.055525071 0
0 0.055525071 0
0 0.055525071 0
0 0.18164768 0
0 0.18164768 0
0 0.18164768 0
0 0.18164768 0
0 0.18164768 0
VECTORS q double
1 -2.6562447e-18 1.2982518e-36
1 -2.6562447e-18 2.0617233e-36
1 -2.6562447e-18 -4.4056163e-36
1 -2.6562447e-18 1.1641062e-36
1 -2.6562447e-18 -4.0909534e-36
1 0 0
1 0 0
1 0 0
1 0 0
1 0 0
1 0 0
1 0 0
1 0 0
1 0 0
1 0 0
1 8.1476492e-16 9.0467028e-33
1 8.1476492e-16 1.2460553e-32
1 8.1476492e-16 1.5874403e-32
1 8.1476492e-16 1.9288253e-32
1 8.1476492e-16 2.2702103e-32
1 0 0
1 0 0
1 0 0
1 0 0
1 0 0
1 -3.7187426e-18 3.0212587e-36
1 -3.7187426e-18 6.4012347e-36
1 -3.7187426e-18 -9.490092e-36
1 -3.7187426e-18 -1.3072945e-36
1 -3.7187426e-18 -6.353262e-36
1 0 0
1 0 0
1 0 0
1 0 0
1 0 0
1 0 0
1 0 0
1 0 0
1 0 0
1 0 0
1 1.1311785e-15 1.2559985e-32
1 1.1311785e-15 1.7299603e-32
1 1.1311785e-15 2.203922e-32
1 1.1311785e-15 2.6778837e-32
1 1.1311785e-15 3.1518454e-32
1 0 0
1 0 0
1 0 0
1 0 0
1 0 0
1 -4.7812405e-18 7.1516781e-36
1 -4.7812405e-18 1.2425935e-35
1 -4.7812405e-18 2.036578e-36
1 -4.7812405e-18 1.8128758e-35
1 -4.7812405e-18 8.9585401e-36
1 0 0
1 0 0
1 0 0
1 0 0
1 0 0
1 0 0
1 0 0
1 0 0
1 0 0
1 0 0
1 1.447592e-15 1.6073268e-32
1 1.447592e-15 2.2138652e-32
1 1.447592e-15 2.8204036e-32
1 1.447592e-15 3.4269421e-32
1 1.447592e-15 4.0334805e-32
1 0 0
1 0 0
1 0 0
1 0 0
1 0 0
1 -5.8437383e-18 2.8561539e-36
1 -5.8437383e-18 6.4135729e-36
1 -5.8437383e-18 -8.1034638e-36
1 -5.8437383e-18 8.6758612e-36
1 -5.8437383e-18 -8.4704668e-36
1 0 0
1 0 0
1 0 0
1 0 0
1 0 0
1 0 0
1 0 0
1 0 0
1 0 0
1 0 0
1 1.7640056e-15 1.9586551e-32
1 1.7640056e-15 2.6977702e-32
1 1.7640056e-15 3.4368853e-32
1 1.7640056e-15 4.1760004e-32
1 1.7640056e-15 4.9151156e-32
1 0 0
1 0 0
1 0 0
1 0 0
1 0 0
1 -6.9062362e-18 1.3005104e-35
1 -6.9062362e-18 1.9179028e-35
1 -6.9062362e-18 5.2828908e-38
1 -6.9062362e-18 1.8963746e-35
1 -6.9062362e-18 1.8878398e-35
1 0 0
1 0 0
1 0 0
1 0 0
1 0 0
1 0 0
1 0 0
1 0 0
1 0 0
1 0 0
1 2.0804192e-15 2.3099833e-32
1 2.0804192e-15 3.1816752e-32
1 2.0804192e-15 4.053367e-32
1 2.0804192e-15 4.9250588e-32
1 2.0804192e-15 5.7967506e-32
1 0 0
1 0 0
1 0 0
1 0 0
1 0 0
