# vtk DataFile Version 4.0
hesp visualization file
ASCII
DATASET UNSTRUCTURED_GRID
POINTS 125 double
0.5 0.21636146 0.5
0.5 0.21636146 0.7
0.5 0.21636146 0.9
0.5 0.21636146 1.1
0.5 0.21636146 1.3
0.505 0.23469435 0.51
0.505 0.23469435 0.71
0.505 0.23469435 0.91
0.505 0.23469435 1.11
0.505 0.23469435 1.31
0.51 0.2080974 0.52
0.51 0.2080974 0.72
0.51 0.2080974 0.92
0.51 0.2080974 1.12
0.51 0.2080974 1.32
0.515 0.26222743 0.53
0.515 0.26222743 0.73
0.515 0.26222743 0.93
0.515 0.26222743 1.13
0.515 0.26222743 1.33
0.52 0.21112695 0.54
0.52 0.21112695 0.74
0.52 0.21112695 0.94
0.52 0.21112695 1.14
0.52 0.21112695 1.34
0.7 0.21636146 0.5
0.7 0.21636146 0.7
0.7 0.21636146 0.9
0.7 0.21636146 1.1
0.7 0.21636146 1.3
0.705 0.23469435 0.51
0.705 0.23469435 0.71
0.705 0.23469435 0.91
0.705 0.23469435 1.11
0.705 0.23469435 1.31
0.71 0.2080974 0.52
0.71 0.2080974 0.72
0.71 0.2080974 0.92
0.71 0.2080974 1.12
0.71 0.2080974 1.32
0.715 0.26222743 0.53
0.715 0.26222743 0.73
0.715 0.26222743 0.93
0.715 0.26222743 1.13
0.715 0.26222743 1.33
0.72 0.21112695 0.54
0.72 0.21112695 0.74
0.72 0.21112695 0.94
0.72 0.21112695 1.14
0.72 0.21112695 1.34
0.9 0.21636146 0.5
0.9 0.21636146 0.7
0.9 0.21636146 0.9
0.9 0.21636146 1.1
0.9 0.21636146 1.3
0.905 0.23469435 0.51
0.905 0.23469435 0.71
0.905 0.23469435 0.91
0.905 0.23469435 1.11
0.905 0.23469435 1.31
0.91 0.2080974 0.52
0.91 0.2080974 0.72
0.91 0.2080974 0.92
0.91 0.2080974 1.12
0.91 0.2080974 1.32
0.915 0.26222743 0.53
0.915 0.26222743 0.73
0.915 0.26222743 0.93
0.915 0.26222743 1.13
0.915 0.26222743 1.33
0.92 0.21112695 0.54
0.92 0.21112695 0.74
0.92 0.21112695 0.94
0.92 0.21112695 1.14
0.92 0.21112695 1.34
1.1 0.21636146 0.5
1.1 0.21636146 0.7
1.1 0.21636146 0.9
1.1 0.21636146 1.1
1.1 0.21636146 1.3
1.105 0.23469435 0.51
1.105 0.23469435 0.71
1.105 0.23469435 0.91
1.105 0.23469435 1.11
1.105 0.23469435 1.31
1.11 0.2080974 0.52
1.11 0.2080974 0.72
1.11 0.2080974 0.92
1.11 0.2080974 1.12
1.11 0.2080974 1.32
1.115 0.26222743 0.53
1.115 0.26222743 0.73
1.115 0.26222743 0.93
1.115 0.26222743 1.13
1.115 0.26222743 1.33
1.12 0.21112695 0.54
1.12 0.21112695 0.74
1.12 0.21112695 0.94
1.12 0.21112695 1.14
1.12 0.21112695 1.34
1.3 0.21636146 0.5
1.3 0.21636146 0.7
1.3 0.21636146 0.9
1.3 0.21636146 1.1
1.3 0.21636146 1.3
1.305 0.23469435 0.51
1.305 0.23469435 0.71
1.305 0.23469435 0.91
1.305 0.23469435 1.11
1.305 0.23469435 1.31
1.31 0.2080974 0.52
1.31 0.2080974 0.72
1.31 0.2080974 0.92
1.31 0.2080974 1.12
1.31 0.2080974 1.32
1.315 0.26222743 0.53
1.315 0.26222743 0.73
1.315 0.26222743 0.93
1.315 0.26222743 1.13
1.315 0.26222743 1.33
1.32 0.21112695 0.54
1.32 0.21112695 0.74
1.32 0.21112695 0.94
1.32 0.21112695 1.14
1.32 0.21112695 1.34
CELLS 0 0
CELL_TYPES 0
POINT_DATA 125
SCALARS m double
LOOKUP_TABLE default
1
1
1
1
1
1
1
1
1
1
1
1
1
1
1
1
1
1
1
1
1
1
1
1
1
1
1
1
1
1
1
1
1
1
1
1
1
1
1
1
1
1
1
1
1
1
1
1
1
1
1
1
1
1
1
1
1
1
1
1
1
1
1
1
1
1
1
1
1
1
1
1
1
1
1
1
1
1
1
1
1
1
1
1
1
1
1
1
1
1
1
1
1
1
1
1
1
1
1
1
1
1
1
1
1
1
1
1
1
1
1
1
1
1
1
1
1
1
1
1
1
1
1
1
1
SCALARS r double
LOOKUP_TABLE default
0.1
0.1
0.1
0.1
0.1
0.1
0.1
0.1
0.1
0.1
0.1
0.1
0.1
0.1
0.1
0.1
0.1
0.1
0.1
0.1
0.1
0.1
0.1
0.1
0.1
0.1
0.1
0.1
0.1
0.1
0.1
0.1
0.1
0.1
0.1
0.1
0.1
0.1
0.1
0.1
0.1
0.1
0.1
0.1
0.1
0.1
0.1
0.1
0.1
0.1
0.1
0.1
0.1
0.1
0.1
0.1
0.1
0.1
0.1
0.1
0.1
0.1
0.1
0.1
0.1
0.1
0.1
0.1
0.1
0.1
0.1
0.1
0.1
0.1
0.1
0.1
0.1
0.1
0.1
0.1
0.1
0.1
0.1
0.1
0.1
0.1
0.1
0.1
0.1
0.1
0.1
0.1
0.1
0.1
0.1
0.1
0.1
0.1
0.1
0.1
0.1
0.1
0.1
0.1
0.1
0.1
0.1
0.1
0.1
0.1
0.1
0.1
0.1
0.1
0.1
0.1
0.1
0.1
0.1
0.1
0.1
0.1
0.1
0.1
0.1
VECTORS v double
4.4088808e-19 0.32889154 4.4088808e-19
4.4088808e-19 0.32889154 6.1724331e-19
4.4088808e-19 0.32889154 7.9359854e-19
4.4088808e-19 0.32889154 9.6995377e-19
4.4088808e-19 0.32889154 1.146309e-18
2.3866299e-20 -0.2761853 2.4102599e-20
2.3866299e-20 -0.2761853 3.3554599e-20
2.3866299e-20 -0.2761853 4.3006599e-20
2.3866299e-20 -0.2761853 5.2458598e-20
2.3866299e-20 -0.2761853 6.1910598e-20
3.2834484e-19 -0.12752565 3.3478297e-19
3.2834484e-19 -0.12752565 4.6354566e-19
3.2834484e-19 -0.12752565 5.9230834e-19
3.2834484e-19 -0.12752565 7.2107102e-19
3.2834484e-19 -0.12752565 8.498337e-19
-1.2728356e-19 -0.16010276 -1.3099084e-19
-1.2728356e-19 -0.16010276 -1.8042135e-19
-1.2728356e-19 -0.16010276 -2.2985186e-19
-1.2728356e-19 -0.16010276 -2.7928236e-19
-1.2728356e-19 -0.16010276 -3.2871287e-19
-3.5994104e-20 -0.33193274 -3.7378493e-20
-3.5994104e-20 -0.33193274 -5.1222379e-20
-3.5994104e-20 -0.33193274 -6.5066266e-20
-3.5994104e-20 -0.33193274 -7.8910152e-20
-3.5994104e-20 -0.33193274 -9.2754038e-20
6.1724331e-19 0.32889154 4.4088808e-19
6.1724331e-19 0.32889154 6.1724331e-19
6.1724331e-19 0.32889154 7.9359854e-19
6.1724331e-19 0.32889154 9.6995377e-19
6.1724331e-19 0.32889154 1.146309e-18
3.3318299e-20 -0.2761853 2.4102599e-20
3.3318299e-20 -0.2761853 3.3554599e-20
3.3318299e-20 -0.2761853 4.3006599e-20
3.3318299e-20 -0.2761853 5.2458598e-20
3.3318299e-20 -0.2761853 6.1910598e-20
4.5710752e-19 -0.12752565 3.3478297e-19
4.5710752e-19 -0.12752565 4.6354566e-19
4.5710752e-19 -0.12752565 5.9230834e-19
4.5710752e-19 -0.12752565 7.2107102e-19
4.5710752e-19 -0.12752565 8.498337e-19
-1.7671406e-19 -0.16010276 -1.3099084e-19
-1.7671406e-19 -0.16010276 -1.8042135e-19
-1.7671406e-19 -0.16010276 -2.2985186e-19
-1.7671406e-19 -0.16010276 -2.7928236e-19
-1.7671406e-19 -0.16010276 -3.2871287e-19
-4.9837991e-20 -0.33193274 -3.7378493e-20
-4.9837991e-20 -0.33193274 -5.1222379e-20
-4.9837991e-20 -0.33193274 -6.5066266e-20
-4.9837991e-20 -0.33193274 -7.8910152e-20
-4.9837991e-20 -0.33193274 -9.2754038e-20
7.9359854e-19 0.32889154 4.4088808e-19
7.9359854e-19 0.32889154 6.1724331e-19
7.9359854e-19 0.32889154 7.9359854e-19
7.9359854e-19 0.32889154 9.6995377e-19
7.9359854e-19 0.32889154 1.146309e-18
4.2770299e-20 -0.2761853 2.4102599e-20
4.2770299e-20 -0.2761853 3.3554599e-20
4.2770299e-20 -0.2761853 4.3006599e-20
4.2770299e-20 -0.2761853 5.2458598e-20
4.2770299e-20 -0.2761853 6.1910598e-20
5.858702e-19 -0.12752565 3.3478297e-19
5.858702e-19 -0.12752565 4.6354566e-19
5.858702e-19 -0.12752565 5.9230834e-19
5.858702e-19 -0.12752565 7.2107102e-19
5.858702e-19 -0.12752565 8.498337e-19
-2.2614457e-19 -0.16010276 -1.3099084e-19
-2.2614457e-19 -0.16010276 -1.8042135e-19
-2.2614457e-19 -0.16010276 -2.2985186e-19
-2.2614457e-19 -0.16010276 -2.7928236e-19
-2.2614457e-19 -0.16010276 -3.2871287e-19
-6.3681877e-20 -0.33193274 -3.7378493e-20
-6.3681877e-20 -0.33193274 -5.1222379e-20
-6.3681877e-20 -0.33193274 -6.5066266e-20
-6.3681877e-20 -0.33193274 -7.8910152e-20
-6.3681877e-20 -0.33193274 -9.2754038e-20
9.6995377e-19 0.32889154 4.4088808e-19
9.6995377e-19 0.32889154 6.1724331e-19
9.6995377e-19 0.32889154 7.9359854e-19
9.6995377e-19 0.32889154 9.6995377e-19
9.6995377e-19 0.32889154 1.146309e-18
5.2222298e-20 -0.2761853 2.4102599e-20
5.2222298e-20 -0.2761853 3.3554599e-20
5.2222298e-20 -0.2761853 4.3006599e-20
5.2222298e-20 -0.2761853 5.2458598e-20
5.2222298e-20 -0.2761853 6.1910598e-20
7.1463289e-19 -0.12752565 3.3478297e-19
7.1463289e-19 -0.12752565 4.6354566e-19
7.1463289e-19 -0.12752565 5.9230834e-19
7.1463289e-19 -0.12752565 7.2107102e-19
7.1463289e-19 -0.12752565 8.498337e-19
-2.7557508e-19 -0.16010276 -1.3099084e-19
-2.7557508e-19 -0.16010276 -1.8042135e-19
-2.7557508e-19 -0.16010276 -2.2985186e-19
-2.7557508e-19 -0.16010276 -2.7928236e-19
-2.7557508e-19 -0.16010276 -3.2871287e-19
-7.7525763e-20 -0.33193274 -3.7378493e-20
-7.7525763e-20 -0.33193274 -5.1222379e-20
-7.7525763e-20 -0.33193274 -6.5066266e-20
-7.7525763e-20 -0.33193274 -7.8910152e-20
-7.7525763e-20 -0.33193274 -9.2754038e-20
1.146309e-18 0.32889154 4.4088808e-19
1.146309e-18 0.32889154 6.1724331e-19
1.146309e-18 0.32889154 7.9359854e-19
1.146309e-18 0.32889154 9.6995377e-19
1.146309e-18 0.32889154 1.146309e-18
6.1674298e-20 -0.2761853 2.4102599e-20
6.1674298e-20 -0.2761853 3.3554599e-20
6.1674298e-20 -0.2761853 4.3006599e-20
6.1674298e-20 -0.2761853 5.2458598e-20
6.1674298e-20 -0.2761853 6.1910598e-20
8.4339557e-19 -0.12752565 3.3478297e-19
8.4339557e-19 -0.12752565 4.6354566e-19
8.4339557e-19 -0.12752565 5.9230834e-19
8.4339557e-19 -0.12752565 7.2107102e-19
8.4339557e-19 -0.12752565 8.498337e-19
-3.2500558e-19 -0.16010276 -1.3099084e-19
-3.2500558e-19 -0.16010276 -1.8042135e-19
-3.2500558e-19 -0.16010276 -2.2985186e-19
-3.2500558e-19 -0.16010276 -2.7928236e-19
-3.2500558e-19 -0.16010276 -3.2871287e-19
-9.136965e-20 -0.33193274 -3.7378493e-20
-9.136965e-20 -0.33193274 -5.1222379e-20
-9.136965e-20 -0.33193274 -6.5066266e-20
-9.136965e-20 -0.33193274 -7.8910152e-20
-9.136965e-20 -0.33193274 -9.2754038e-20
VECTORS q double
1 -2.5579182e-13 9.6028311e-29
1 -2.5579182e-13 1.3443875e-28
1 -2.5579182e-13 1.7284497e-28
1 -2.5579182e-13 2.1126141e-28
1 -2.5579182e-13 2.4967726e-28
1 -6.5893808e-15 1.9195753e-31
1 -6.5893808e-15 2.6773829e-31
1 -6.5893808e-15 3.4278532e-31
1 -6.5893808e-15 4.1868638e-31
1 -6.5893808e-15 4.9329984e-31
1 -2.1436499e-13 6.4555435e-29
1 -2.1436499e-13 8.938647e-29
1 -2.1436499e-13 1.1418989e-28
1 -2.1436499e-13 1.3903201e-28
1 -2.1436499e-13 1.6390191e-28
1 1.2578444e-13 1.7024352e-29
1 1.2578444e-13 2.3431715e-29
1 1.2578444e-13 2.9875936e-29
1 1.2578444e-13 3.6304595e-29
1 1.2578444e-13 4.2706214e-29
1 3.7461918e-14 1.4094165e-30
1 3.7461918e-14 1.9226166e-30
1 3.7461918e-14 2.4485764e-30
1 3.7461918e-14 2.965717e-30
1 3.7461918e-14 3.4831244e-30
1 -3.5810855e-13 1.3444111e-28
1 -3.5810855e-13 1.8821733e-28
1 -3.5810855e-13 2.4198869e-28
1 -3.5810855e-13 2.9576789e-28
1 -3.5810855e-13 3.4954568e-28
1 -9.1990366e-15 2.6814597e-31
1 -9.1990366e-15 3.7402111e-31
1 -9.1990366e-15 4.7880131e-31
1 -9.1990366e-15 5.8509396e-31
1 -9.1990366e-15 6.8886309e-31
1 -2.9842969e-13 8.9861321e-29
1 -2.9842969e-13 1.2442708e-28
1 -2.9842969e-13 1.5895929e-28
1 -2.9842969e-13 1.9353959e-28
1 -2.9842969e-13 2.281543e-28
1 1.7463277e-13 2.3637603e-29
1 1.7463277e-13 3.2534323e-29
1 1.7463277e-13 4.1483108e-29
1 1.7463277e-13 5.0410224e-29
1 1.7463277e-13 5.9298766e-29
1 5.1870347e-14 1.9512045e-30
1 5.1870347e-14 2.6622507e-30
1 5.1870347e-14 3.3922907e-30
1 5.1870347e-14 4.1082948e-30
1 5.1870347e-14 4.823386e-30
1 -4.6042528e-13 1.7285788e-28
1 -4.6042528e-13 2.4198884e-28
1 -4.6042528e-13 3.1113374e-28
1 -4.6042528e-13 3.8028341e-28
1 -4.6042528e-13 4.4942574e-28
1 -1.1808692e-14 3.4440307e-31
1 -1.1808692e-14 4.8046652e-31
1 -1.1808692e-14 6.1486163e-31
1 -1.1808692e-14 7.5133969e-31
1 -1.1808692e-14 8.8506243e-31
1 -3.824944e-13 1.152153e-28
1 -3.824944e-13 1.5953216e-28
1 -3.824944e-13 2.0379814e-28
1 -3.824944e-13 2.4813994e-28
1 -3.824944e-13 2.9252599e-28
1 2.2348109e-13 3.0244184e-29
1 2.2348109e-13 4.1627072e-29
1 2.2348109e-13 5.3074962e-29
1 2.2348109e-13 6.4498423e-29
1 2.2348109e-13 7.5868411e-29
1 6.6278777e-14 2.4950611e-30
1 6.6278777e-14 3.4037185e-30
1 6.6278777e-14 4.3358513e-30
1 6.6278777e-14 5.2502618e-30
1 6.6278777e-14 6.1663239e-30
1 -5.6274201e-13 2.1126258e-28
1 -5.6274201e-13 2.957679e-28
1 -5.6274201e-13 3.8026388e-28
1 -5.6274201e-13 4.6477787e-28
1 -5.6274201e-13 5.4927714e-28
1 -1.4418348e-14 4.2045856e-31
1 -1.4418348e-14 5.8643447e-31
1 -1.4418348e-14 7.5034178e-31
1 -1.4418348e-14 9.1713539e-31
1 -1.4418348e-14 1.0799452e-30
1 -4.665591e-13 1.4054519e-28
1 -4.665591e-13 1.9460075e-28
1 -4.665591e-13 2.4860373e-28
1 -4.665591e-13 3.0269822e-28
1 -4.665591e-13 3.5683614e-28
1 2.7232942e-13 3.6862204e-29
1 2.7232942e-13 5.0734294e-29
1 2.7232942e-13 6.4688779e-29
1 2.7232942e-13 7.8609696e-29
1 2.7232942e-13 9.2468609e-29
1 8.0687207e-14 3.0365863e-30
1 8.0687207e-14 4.1425594e-30
1 8.0687207e-14 5.2781079e-30
1 8.0687207e-14 6.3907718e-30
1 8.0687207e-14 7.5065119e-30
1 -6.6505874e-13 2.4966874e-28
1 -6.6505874e-13 3.4954067e-28
1 -6.6505874e-13 4.4938969e-28
1 -6.6505874e-13 5.4928009e-28
1 -6.6505874e-13 6.4916948e-28
1 -1.7028004e-14 4.9686279e-31
1 -1.7028004e-14 6.9286453e-31
1 -1.7028004e-14 8.8717974e-31
1 -1.7028004e-14 1.0834753e-30
1 -1.7028004e-14 1.2760712e-30
1 -5.506238e-13 1.6583822e-28
1 -5.506238e-13 2.296306e-28
1 -5.506238e-13 2.9334366e-28
1 -5.506238e-13 3.5717676e-28
1 -5.506238e-13 4.2105664e-28
1 3.2117775e-13 4.3471177e-29
1 3.2117775e-13 5.9841611e-29
1 3.2117775e-13 7.6291646e-29
1 3.2117775e-13 9.2709067e-29
1 3.2117775e-13 1.0905706e-28
1 9.5095637e-14 3.5855589e-30
1 9.5095637e-14 4.8924462e-30
1 9.5095637e-14 6.2302788e-30
1 9.5095637e-14 7.5453019e-30
1 9.5095637e-14 8.8621319e-30
