# vtk DataFile Version 4.0
hesp visualization file
ASCII
DATASET UNSTRUCTURED_GRID
POINTS 125 double
0.5 0.27217797 0.5
0.5 0.27217797 0.7
0.5 0.27217797 0.9
0.5 0.27217797 1.1
0.5 0.27217797 1.3
0.505 0.23425097 0.51
0.505 0.23425097 0.71
0.505 0.23425097 0.91
0.505 0.23425097 1.11
0.505 0.23425097 1.31
0.51 0.21288733 0.52
0.51 0.21288733 0.72
0.51 0.21288733 0.92
0.51 0.21288733 1.12
0.51 0.21288733 1.32
0.515 0.19695686 0.53
0.515 0.19695686 0.73
0.515 0.19695686 0.93
0.515 0.19695686 1.13
0.515 0.19695686 1.33
0.52 0.25613288 0.54
0.52 0.25613288 0.74
0.52 0.25613288 0.94
0.52 0.25613288 1.14
0.52 0.25613288 1.34
0.7 0.27217797 0.5
0.7 0.27217797 0.7
0.7 0.27217797 0.9
0.7 0.27217797 1.1
0.7 0.27217797 1.3
0.705 0.23425097 0.51
0.705 0.23425097 0.71
0.705 0.23425097 0.91
0.705 0.23425097 1.11
0.705 0.23425097 1.31
0.71 0.21288733 0.52
0.71 0.21288733 0.72
0.71 0.21288733 0.92
0.71 0.21288733 1.12
0.71 0.21288733 1.32
0.715 0.19695686 0.53
0.715 0.19695686 0.73
0.715 0.19695686 0.93
0.715 0.19695686 1.13
0.715 0.19695686 1.33
0.72 0.25613288 0.54
0.72 0.25613288 0.74
0.72 0.25613288 0.94
0.72 0.25613288 1.14
0.72 0.25613288 1.34
0.9 0.27217797 0.5
0.9 0.27217797 0.7
0.9 0.27217797 0.9
0.9 0.27217797 1.1
0.9 0.27217797 1.3
0.905 0.23425097 0.51
0.905 0.23425097 0.71
0.905 0.23425097 0.91
0.905 0.23425097 1.11
0.905 0.23425097 1.31
0.91 0.21288733 0.52
0.91 0.21288733 0.72
0.91 0.21288733 0.92
0.91 0.21288733 1.12
0.91 0.21288733 1.32
0.915 0.19695686 0.53
0.915 0.19695686 0.73
0.915 0.19695686 0.93
0.915 0.19695686 1.13
0.915 0.19695686 1.33
0.92 0.25613288 0.54
0.92 0.25613288 0.74
0.92 0.25613288 0.94
0.92 0.25613288 1.14
0.92 0.25613288 1.34
1.1 0.27217797 0.5
1.1 0.27217797 0.7
1.1 0.27217797 0.9
1.1 0.27217797 1.1
1.1 0.27217797 1.3
1.105 0.23425097 0.51
1.105 0.23425097 0.71
1.105 0.23425097 0.91
1.105 0.23425097 1.11
1.105 0.23425097 1.31
1.11 0.21288733 0.52
1.11 0.21288733 0.72
1.11 0.21288733 0.92
1.11 0.21288733 1.12
1.11 0.21288733 1.32
1.115 0.19695686 0.53
1.115 0.19695686 0.73
1.115 0.19695686 0.93
1.115 0.19695686 1.13
1.115 0.19695686 1.33
1.12 0.25613288 0.54
1.12 0.25613288 0.74
1.12 0.25613288 0.94
1.12 0.25613288 1.14
1.12 0.25613288 1.34
1.3 0.27217797 0.5
1.3 0.27217797 0.7
1.3 0.27217797 0.9
1.3 0.27217797 1.1
1.3 0.27217797 1.3
1.305 0.23425097 0.51
1.305 0.23425097 0.71
1.305 0.23425097 0.91
1.305 0.23425097 1.11
1.305 0.23425097 1.31
1.31 0.21288733 0.52
1.31 0.21288733 0.72
1.31 0.21288733 0.92
1.31 0.21288733 1.12
1.31 0.21288733 1.32
1.315 0.19695686 0.53
1.315 0.19695686 0.73
1.315 0.19695686 0.93
1.315 0.19695686 1.13
1.315 0.19695686 1.33
1.32 0.25613288 0.54
1.32 0.25613288 0.74
1.32 0.25613288 0.94
1.32 0.25613288 1.14
1.32 0.25613288 1.34
CELLS 0 0
CELL_TYPES 0
POINT_DATA 125
SCALARS m double
LOOKUP_TABLE default
1
1
1
1
1
1
1
1
1
1
1
1
1
1
1
1
1
1
1
1
1
1
1
1
1
1
1
1
1
1
1
1
1
1
1
1
1
1
1
1
1
1
1
1
1
1
1
1
1
1
1
1
1
1
1
1
1
1
1
1
1
1
1
1
1
1
1
1
1
1
1
1
1
1
1
1
1
1
1
1
1
1
1
1
1
1
1
1
1
1
1
1
1
1
1
1
1
1
1
1
1
1
1
1
1
1
1
1
1
1
1
1
1
1
1
1
1
1
1
1
1
1
1
1
1
SCALARS r double
LOOKUP_TABLE default
0.1
0.1
0.1
0.1
0.1
0.1
0.1
0.1
0.1
0.1
0.1
0.1
0.1
0.1
0.1
0.1
0.1
0.1
0.1
0.1
0.1
0.1
0.1
0.1
0.1
0.1
0.1
0.1
0.1
0.1
0.1
0.1
0.1
0.1
0.1
0.1
0.1
0.1
0.1
0.1
0.1
0.1
0.1
0.1
0.1
0.1
0.1
0.1
0.1
0.1
0.1
0.1
0.1
0.1
0.1
0.1
0.1
0.1
0.1
0.1
0.1
0.1
0.1
0.1
0.1
0.1
0.1
0.1
0.1
0.1
0.1
0.1
0.1
0.1
0.1
0.1
0.1
0.1
0.1
0.1
0.1
0.1
0.1
0.1
0.1
0.1
0.1
0.1
0.1
0.1
0.1
0.1
0.1
0.1
0.1
0.1
0.1
0.1
0.1
0.1
0.1
0.1
0.1
0.1
0.1
0.1
0.1
0.1
0.1
0.1
0.1
0.1
0.1
0.1
0.1
0.1
0.1
0.1
0.1
0.1
0.1
0.1
0.1
0.1
0.1
VECTORS v double
3.4245133e-19 0.066759099 3.4245133e-19
3.4245133e-19 0.066759099 4.7943186e-19
3.4245133e-19 0.066759099 6.1641239e-19
3.4245133e-19 0.066759099 7.5339293e-19
3.4245133e-19 0.066759099 8.9037346e-19
1.2052268e-20 0.21651618 1.2171597e-20
1.2052268e-20 0.21651618 1.6944773e-20
1.2052268e-20 0.21651618 2.1717948e-20
1.2052268e-20 0.21651618 2.6491124e-20
1.2052268e-20 0.21651618 3.1264299e-20
2.7231768e-19 0.064109204 2.7765724e-19
2.7231768e-19 0.064109204 3.8444849e-19
2.7231768e-19 0.064109204 4.9123973e-19
2.7231768e-19 0.064109204 5.9803098e-19
2.7231768e-19 0.064109204 7.0482222e-19
-1.0844989e-19 -0.22357294 -1.1160862e-19
-1.0844989e-19 -0.22357294 -1.5372508e-19
-1.0844989e-19 -0.22357294 -1.9584154e-19
-1.0844989e-19 -0.22357294 -2.37958e-19
-1.0844989e-19 -0.22357294 -2.8007447e-19
-3.5224363e-20 0.14861593 -3.6579146e-20
-3.5224363e-20 0.14861593 -5.0126978e-20
-3.5224363e-20 0.14861593 -6.3674809e-20
-3.5224363e-20 0.14861593 -7.7222641e-20
-3.5224363e-20 0.14861593 -9.0770473e-20
4.7943186e-19 0.066759099 3.4245133e-19
4.7943186e-19 0.066759099 4.7943186e-19
4.7943186e-19 0.066759099 6.1641239e-19
4.7943186e-19 0.066759099 7.5339293e-19
4.7943186e-19 0.066759099 8.9037346e-19
1.6825444e-20 0.21651618 1.2171597e-20
1.6825444e-20 0.21651618 1.6944773e-20
1.6825444e-20 0.21651618 2.1717948e-20
1.6825444e-20 0.21651618 2.6491124e-20
1.6825444e-20 0.21651618 3.1264299e-20
3.7910892e-19 0.064109204 2.7765724e-19
3.7910892e-19 0.064109204 3.8444849e-19
3.7910892e-19 0.064109204 4.9123973e-19
3.7910892e-19 0.064109204 5.9803098e-19
3.7910892e-19 0.064109204 7.0482222e-19
-1.5056635e-19 -0.22357294 -1.1160862e-19
-1.5056635e-19 -0.22357294 -1.5372508e-19
-1.5056635e-19 -0.22357294 -1.9584154e-19
-1.5056635e-19 -0.22357294 -2.37958e-19
-1.5056635e-19 -0.22357294 -2.8007447e-19
-4.8772194e-20 0.14861593 -3.6579146e-20
-4.8772194e-20 0.14861593 -5.0126978e-20
-4.8772194e-20 0.14861593 -6.3674809e-20
-4.8772194e-20 0.14861593 -7.7222641e-20
-4.8772194e-20 0.14861593 -9.0770473e-20
6.1641239e-19 0.066759099 3.4245133e-19
6.1641239e-19 0.066759099 4.7943186e-19
6.1641239e-19 0.066759099 6.1641239e-19
6.1641239e-19 0.066759099 7.5339293e-19
6.1641239e-19 0.066759099 8.9037346e-19
2.1598619e-20 0.21651618 1.2171597e-20
2.1598619e-20 0.21651618 1.6944773e-20
2.1598619e-20 0.21651618 2.1717948e-20
2.1598619e-20 0.21651618 2.6491124e-20
2.1598619e-20 0.21651618 3.1264299e-20
4.8590017e-19 0.064109204 2.7765724e-19
4.8590017e-19 0.064109204 3.8444849e-19
4.8590017e-19 0.064109204 4.9123973e-19
4.8590017e-19 0.064109204 5.9803098e-19
4.8590017e-19 0.064109204 7.0482222e-19
-1.9268281e-19 -0.22357294 -1.1160862e-19
-1.9268281e-19 -0.22357294 -1.5372508e-19
-1.9268281e-19 -0.22357294 -1.9584154e-19
-1.9268281e-19 -0.22357294 -2.37958e-19
-1.9268281e-19 -0.22357294 -2.8007447e-19
-6.2320026e-20 0.14861593 -3.6579146e-20
-6.2320026e-20 0.14861593 -5.0126978e-20
-6.2320026e-20 0.14861593 -6.3674809e-20
-6.2320026e-20 0.14861593 -7.7222641e-20
-6.2320026e-20 0.14861593 -9.0770473e-20
7.5339293e-19 0.066759099 3.4245133e-19
7.5339293e-19 0.066759099 4.7943186e-19
7.5339293e-19 0.066759099 6.1641239e-19
7.5339293e-19 0.066759099 7.5339293e-19
7.5339293e-19 0.066759099 8.9037346e-19
2.6371795e-20 0.21651618 1.2171597e-20
2.6371795e-20 0.21651618 1.6944773e-20
2.6371795e-20 0.21651618 2.1717948e-20
2.6371795e-20 0.21651618 2.6491124e-20
2.6371795e-20 0.21651618 3.1264299e-20
5.9269141e-19 0.064109204 2.7765724e-19
5.9269141e-19 0.064109204 3.8444849e-19
5.9269141e-19 0.064109204 4.9123973e-19
5.9269141e-19 0.064109204 5.9803098e-19
5.9269141e-19 0.064109204 7.0482222e-19
-2.3479927e-19 -0.22357294 -1.1160862e-19
-2.3479927e-19 -0.22357294 -1.5372508e-19
-2.3479927e-19 -0.22357294 -1.9584154e-19
-2.3479927e-19 -0.22357294 -2.37958e-19
-2.3479927e-19 -0.22357294 -2.8007447e-19
-7.5867858e-20 0.14861593 -3.6579146e-20
-7.5867858e-20 0.14861593 -5.0126978e-20
-7.5867858e-20 0.14861593 -6.3674809e-20
-7.5867858e-20 0.14861593 -7.7222641e-20
-7.5867858e-20 0.14861593 -9.0770473e-20
8.9037346e-19 0.066759099 3.4245133e-19
8.9037346e-19 0.066759099 4.7943186e-19
8.9037346e-19 0.066759099 6.1641239e-19
8.9037346e-19 0.066759099 7.5339293e-19
8.9037346e-19 0.066759099 8.9037346e-19
3.114497e-20 0.21651618 1.2171597e-20
3.114497e-20 0.21651618 1.6944773e-20
3.114497e-20 0.21651618 2.1717948e-20
3.114497e-20 0.21651618 2.6491124e-20
3.114497e-20 0.21651618 3.1264299e-20
6.9948266e-19 0.064109204 2.7765724e-19
6.9948266e-19 0.064109204 3.8444849e-19
6.9948266e-19 0.064109204 4.9123973e-19
6.9948266e-19 0.064109204 5.9803098e-19
6.9948266e-19 0.064109204 7.0482222e-19
-2.7691573e-19 -0.22357294 -1.1160862e-19
-2.7691573e-19 -0.22357294 -1.5372508e-19
-2.7691573e-19 -0.22357294 -1.9584154e-19
-2.7691573e-19 -0.22357294 -2.37958e-19
-2.7691573e-19 -0.22357294 -2.8007447e-19
-8.941569e-20 0.14861593 -3.6579146e-20
-8.941569e-20 0.14861593 -5.0126978e-20
-8.941569e-20 0.14861593 -6.3674809e-20
-8.941569e-20 0.14861593 -7.7222641e-20
-8.941569e-20 0.14861593 -9.0770473e-20
VECTORS q double
1 -1.7274822e-13 5.1849033e-29
1 -1.7274822e-13 7.2586514e-29
1 -1.7274822e-13 9.3322593e-29
1 -1.7274822e-13 1.1406538e-28
1 -1.7274822e-13 1.3480652e-28
1 -2.0683628e-15 2.0953346e-32
1 -2.0683628e-15 2.9259607e-32
1 -2.0683628e-15 3.7437277e-32
1 -2.0683628e-15 4.577504e-32
1 -2.0683628e-15 5.3794211e-32
1 -1.4915337e-13 3.6013398e-29
1 -1.4915337e-13 4.9866542e-29
1 -1.4915337e-13 6.3701629e-29
1 -1.4915337e-13 7.7562146e-29
1 -1.4915337e-13 9.1440071e-29
1 9.5033975e-14 1.1388773e-29
1 9.5033975e-14 1.5674111e-29
1 9.5033975e-14 1.9986e-29
1 9.5033975e-14 2.4286508e-29
1 9.5033975e-14 2.8566798e-29
1 2.8698584e-14 1.0480163e-30
1 2.8698584e-14 1.4302944e-30
1 2.8698584e-14 1.820572e-30
1 2.8698584e-14 2.2059271e-30
1 2.8698584e-14 2.5904754e-30
1 -2.418475e-13 7.2591295e-29
1 -2.418475e-13 1.0162565e-28
1 -2.418475e-13 1.3065443e-28
1 -2.418475e-13 1.5969651e-28
1 -2.418475e-13 1.8873121e-28
1 -2.8875163e-15 2.9304377e-32
1 -2.8875163e-15 4.0884495e-32
1 -2.8875163e-15 5.2340348e-32
1 -2.8875163e-15 6.4076665e-32
1 -2.8875163e-15 7.5163034e-32
1 -2.0764488e-13 5.0127498e-29
1 -2.0764488e-13 6.9410624e-29
1 -2.0764488e-13 8.8672075e-29
1 -2.0764488e-13 1.0796623e-28
1 -2.0764488e-13 1.2728058e-28
1 1.3194037e-13 1.5812605e-29
1 1.3194037e-13 2.1762617e-29
1 1.3194037e-13 2.7750032e-29
1 1.3194037e-13 3.3722579e-29
1 1.3194037e-13 3.9665567e-29
1 3.9736502e-14 1.4511211e-30
1 3.9736502e-14 1.9808534e-30
1 3.9736502e-14 2.5226879e-30
1 3.9736502e-14 3.0563105e-30
1 3.9736502e-14 3.5879264e-30
1 -3.1094679e-13 9.33343e-29
1 -3.1094679e-13 1.3066055e-28
1 -3.1094679e-13 1.6799273e-28
1 -3.1094679e-13 2.0533056e-28
1 -3.1094679e-13 2.4266079e-28
1 -3.7066699e-15 3.7673392e-32
1 -3.7066699e-15 5.2576749e-32
1 -3.7066699e-15 6.7256064e-32
1 -3.7066699e-15 8.2296696e-32
1 -3.7066699e-15 9.6802192e-32
1 -2.661364e-13 6.4278716e-29
1 -2.661364e-13 8.900525e-29
1 -2.661364e-13 1.1369701e-28
1 -2.661364e-13 1.3844055e-28
1 -2.661364e-13 1.6320999e-28
1 1.6884677e-13 2.0231873e-29
1 1.6884677e-13 2.7844583e-29
1 1.6884677e-13 3.5503815e-29
1 1.6884677e-13 4.3146472e-29
1 1.6884677e-13 5.0748124e-29
1 5.0774419e-14 1.8549812e-30
1 5.0774419e-14 2.5317335e-30
1 5.0774419e-14 3.2232935e-30
1 5.0774419e-14 3.9045127e-30
1 5.0774419e-14 4.5853124e-30
1 -3.8004608e-13 1.1406966e-28
1 -3.8004608e-13 1.5969515e-28
1 -3.8004608e-13 2.053166e-28
1 -3.8004608e-13 2.5095012e-28
1 -3.8004608e-13 2.9656838e-28
1 -4.5258235e-15 4.6010341e-32
1 -4.5258235e-15 6.4236286e-32
1 -4.5258235e-15 8.2102639e-32
1 -4.5258235e-15 1.0052483e-31
1 -4.5258235e-15 1.1803731e-31
1 -3.2462791e-13 7.8408667e-29
1 -3.2462791e-13 1.0856841e-28
1 -3.2462791e-13 1.3869154e-28
1 -3.2462791e-13 1.6887309e-28
1 -3.2462791e-13 1.9908811e-28
1 2.0575317e-13 2.4659629e-29
1 2.0575317e-13 3.3937113e-29
1 2.0575317e-13 4.327442e-29
1 2.0575317e-13 5.2587119e-29
1 2.0575317e-13 6.1853466e-29
1 6.1812336e-14 2.2578896e-30
1 6.1812336e-14 3.0816209e-30
1 6.1812336e-14 3.9243387e-30
1 6.1812336e-14 4.7534355e-30
1 6.1812336e-14 5.5826242e-30
1 -4.4914537e-13 1.3480761e-28
1 -4.4914537e-13 1.8873043e-28
1 -4.4914537e-13 2.426384e-28
1 -4.4914537e-13 2.9657754e-28
1 -4.4914537e-13 3.5051263e-28
1 -5.344977e-15 5.4452613e-32
1 -5.344977e-15 7.5982537e-32
1 -5.344977e-15 9.7339384e-32
1 -5.344977e-15 1.1891998e-31
1 -5.344977e-15 1.3973995e-31
1 -3.8311943e-13 9.2517737e-29
1 -3.8311943e-13 1.2811084e-28
1 -3.8311943e-13 1.6364782e-28
1 -3.8311943e-13 1.9926467e-28
1 -3.8311943e-13 2.349142e-28
1 2.4265957e-13 2.9079321e-29
1 2.4265957e-13 4.0028119e-29
1 2.4265957e-13 5.1033977e-29
1 2.4265957e-13 6.2016846e-29
1 2.4265957e-13 7.2947132e-29
1 7.2850253e-14 2.665384e-30
1 7.2850253e-14 3.6385721e-30
1 7.2850253e-14 4.6309803e-30
1 7.2850253e-14 5.6106591e-30
1 7.2850253e-14 6.5890938e-30
