# vtk DataFile Version 4.0
hesp visualization file
ASCII
DATASET UNSTRUCTURED_GRID
POINTS 125 double
0.5 0.22732022 0.5
0.5 0.22732022 0.7
0.5 0.22732022 0.9
0.5 0.22732022 1.1
0.5 0.22732022 1.3
0.505 0.19917664 0.51
0.505 0.19917664 0.71
0.505 0.19917664 0.91
0.505 0.19917664 1.11
0.505 0.19917664 1.31
0.51 0.20188156 0.52
0.51 0.20188156 0.72
0.51 0.20188156 0.92
0.51 0.20188156 1.12
0.51 0.20188156 1.32
0.515 0.22619584 0.53
0.515 0.22619584 0.73
0.515 0.22619584 0.93
0.515 0.22619584 1.13
0.515 0.22619584 1.33
0.52 0.21240256 0.54
0.52 0.21240256 0.74
0.52 0.21240256 0.94
0.52 0.21240256 1.14
0.52 0.21240256 1.34
0.7 0.22732022 0.5
0.7 0.22732022 0.7
0.7 0.22732022 0.9
0.7 0.22732022 1.1
0.7 0.22732022 1.3
0.705 0.19917664 0.51
0.705 0.19917664 0.71
0.705 0.19917664 0.91
0.705 0.19917664 1.11
0.705 0.19917664 1.31
0.71 0.20188156 0.52
0.71 0.20188156 0.72
0.71 0.20188156 0.92
0.71 0.20188156 1.12
0.71 0.20188156 1.32
0.715 0.22619584 0.53
0.715 0.22619584 0.73
0.715 0.22619584 0.93
0.715 0.22619584 1.13
0.715 0.22619584 1.33
0.72 0.21240256 0.54
0.72 0.21240256 0.74
0.72 0.21240256 0.94
0.72 0.21240256 1.14
0.72 0.21240256 1.34
0.9 0.22732022 0.5
0.9 0.22732022 0.7
0.9 0.22732022 0.9
0.9 0.22732022 1.1
0.9 0.22732022 1.3
0.905 0.19917664 0.51
0.905 0.19917664 0.71
0.905 0.19917664 0.91
0.905 0.19917664 1.11
0.905 0.19917664 1.31
0.91 0.20188156 0.52
0.91 0.20188156 0.72
0.91 0.20188156 0.92
0.91 0.20188156 1.12
0.91 0.20188156 1.32
0.915 0.22619584 0.53
0.915 0.22619584 0.73
0.915 0.22619584 0.93
0.915 0.22619584 1.13
0.915 0.22619584 1.33
0.92 0.21240256 0.54
0.92 0.21240256 0.74
0.92 0.21240256 0.94
0.92 0.21240256 1.14
0.92 0.21240256 1.34
1.1 0.22732022 0.5
1.1 0.22732022 0.7
1.1 0.22732022 0.9
1.1 0.22732022 1.1
1.1 0.22732022 1.3
1.105 0.19917664 0.51
1.105 0.19917664 0.71
1.105 0.19917664 0.91
1.105 0.19917664 1.11
1.105 0.19917664 1.31
1.11 0.20188156 0.52
1.11 0.20188156 0.72
1.11 0.20188156 0.92
1.11 0.20188156 1.12
1.11 0.20188156 1.32
1.115 0.22619584 0.53
1.115 0.22619584 0.73
1.115 0.22619584 0.93
1.115 0.22619584 1.13
1.115 0.22619584 1.33
1.12 0.21240256 0.54
1.12 0.21240256 0.74
1.12 0.21240256 0.94
1.12 0.21240256 1.14
1.12 0.21240256 1.34
1.3 0.22732022 0.5
1.3 0.22732022 0.7
1.3 0.22732022 0.9
1.3 0.22732022 1.1
1.3 0.22732022 1.3
1.305 0.19917664 0.51
1.305 0.19917664 0.71
1.305 0.19917664 0.91
1.305 0.19917664 1.11
1.305 0.19917664 1.31
1.31 0.20188156 0.52
1.31 0.20188156 0.72
1.31 0.20188156 0.92
1.31 0.20188156 1.12
1.31 0.20188156 1.32
1.315 0.22619584 0.53
1.315 0.22619584 0.73
1.315 0.22619584 0.93
1.315 0.22619584 1.13
1.315 0.22619584 1.33
1.32 0.21240256 0.54
1.32 0.21240256 0.74
1.32 0.21240256 0.94
1.32 0.21240256 1.14
1.32 0.21240256 1.34
CELLS 0 0
CELL_TYPES 0
POINT_DATA 125
SCALARS m double
LOOKUP_TABLE default
1
1
1
1
1
1
1
1
1
1
1
1
1
1
1
1
1
1
1
1
1
1
1
1
1
1
1
1
1
1
1
1
1
1
1
1
1
1
1
1
1
1
1
1
1
1
1
1
1
1
1
1
1
1
1
1
1
1
1
1
1
1
1
1
1
1
1
1
1
1
1
1
1
1
1
1
1
1
1
1
1
1
1
1
1
1
1
1
1
1
1
1
1
1
1
1
1
1
1
1
1
1
1
1
1
1
1
1
1
1
1
1
1
1
1
1
1
1
1
1
1
1
1
1
1
SCALARS r double
LOOKUP_TABLE default
0.1
0.1
0.1
0.1
0.1
0.1
0.1
0.1
0.1
0.1
0.1
0.1
0.1
0.1
0.1
0.1
0.1
0.1
0.1
0.1
0.1
0.1
0.1
0.1
0.1
0.1
0.1
0.1
0.1
0.1
0.1
0.1
0.1
0.1
0.1
0.1
0.1
0.1
0.1
0.1
0.1
0.1
0.1
0.1
0.1
0.1
0.1
0.1
0.1
0.1
0.1
0.1
0.1
0.1
0.1
0.1
0.1
0.1
0.1
0.1
0.1
0.1
0.1
0.1
0.1
0.1
0.1
0.1
0.1
0.1
0.1
0.1
0.1
0.1
0.1
0.1
0.1
0.1
0.1
0.1
0.1
0.1
0.1
0.1
0.1
0.1
0.1
0.1
0.1
0.1
0.1
0.1
0.1
0.1
0.1
0.1
0.1
0.1
0.1
0.1
0.1
0.1
0.1
0.1
0.1
0.1
0.1
0.1
0.1
0.1
0.1
0.1
0.1
0.1
0.1
0.1
0.1
0.1
0.1
0.1
0.1
0.1
0.1
0.1
0.1
VECTORS v double
3.9098147e-19 0.2515313 3.9098147e-19
3.9098147e-19 0.2515313 5.4737406e-19
3.9098147e-19 0.2515313 7.0376664e-19
3.9098147e-19 0.2515313 8.6015923e-19
3.9098147e-19 0.2515313 1.0165518e-18
2.020052e-20 0.21323806 2.0400525e-20
2.020052e-20 0.21323806 2.8400731e-20
2.020052e-20 0.21323806 3.6400937e-20
2.020052e-20 0.21323806 4.4401142e-20
2.020052e-20 0.21323806 5.2401348e-20
2.8941473e-19 -0.15770295 2.9508952e-19
2.8941473e-19 -0.15770295 4.0858549e-19
2.8941473e-19 -0.15770295 5.2208147e-19
2.8941473e-19 -0.15770295 6.3557744e-19
2.8941473e-19 -0.15770295 7.4907341e-19
-1.1758624e-19 -0.22743427 -1.2101108e-19
-1.1758624e-19 -0.22743427 -1.6667564e-19
-1.1758624e-19 -0.22743427 -2.123402e-19
-1.1758624e-19 -0.22743427 -2.5800476e-19
-1.1758624e-19 -0.22743427 -3.0366932e-19
-3.5994104e-20 0.32806726 -3.7378493e-20
-3.5994104e-20 0.32806726 -5.1222379e-20
-3.5994104e-20 0.32806726 -6.5066266e-20
-3.5994104e-20 0.32806726 -7.8910152e-20
-3.5994104e-20 0.32806726 -9.2754038e-20
5.4737406e-19 0.2515313 3.9098147e-19
5.4737406e-19 0.2515313 5.4737406e-19
5.4737406e-19 0.2515313 7.0376664e-19
5.4737406e-19 0.2515313 8.6015923e-19
5.4737406e-19 0.2515313 1.0165518e-18
2.8200726e-20 0.21323806 2.0400525e-20
2.8200726e-20 0.21323806 2.8400731e-20
2.8200726e-20 0.21323806 3.6400937e-20
2.8200726e-20 0.21323806 4.4401142e-20
2.8200726e-20 0.21323806 5.2401348e-20
4.029107e-19 -0.15770295 2.9508952e-19
4.029107e-19 -0.15770295 4.0858549e-19
4.029107e-19 -0.15770295 5.2208147e-19
4.029107e-19 -0.15770295 6.3557744e-19
4.029107e-19 -0.15770295 7.4907341e-19
-1.632508e-19 -0.22743427 -1.2101108e-19
-1.632508e-19 -0.22743427 -1.6667564e-19
-1.632508e-19 -0.22743427 -2.123402e-19
-1.632508e-19 -0.22743427 -2.5800476e-19
-1.632508e-19 -0.22743427 -3.0366932e-19
-4.9837991e-20 0.32806726 -3.7378493e-20
-4.9837991e-20 0.32806726 -5.1222379e-20
-4.9837991e-20 0.32806726 -6.5066266e-20
-4.9837991e-20 0.32806726 -7.8910152e-20
-4.9837991e-20 0.32806726 -9.2754038e-20
7.0376664e-19 0.2515313 3.9098147e-19
7.0376664e-19 0.2515313 5.4737406e-19
7.0376664e-19 0.2515313 7.0376664e-19
7.0376664e-19 0.2515313 8.6015923e-19
7.0376664e-19 0.2515313 1.0165518e-18
3.6200931e-20 0.21323806 2.0400525e-20
3.6200931e-20 0.21323806 2.8400731e-20
3.6200931e-20 0.21323806 3.6400937e-20
3.6200931e-20 0.21323806 4.4401142e-20
3.6200931e-20 0.21323806 5.2401348e-20
5.1640667e-19 -0.15770295 2.9508952e-19
5.1640667e-19 -0.15770295 4.0858549e-19
5.1640667e-19 -0.15770295 5.2208147e-19
5.1640667e-19 -0.15770295 6.3557744e-19
5.1640667e-19 -0.15770295 7.4907341e-19
-2.0891536e-19 -0.22743427 -1.2101108e-19
-2.0891536e-19 -0.22743427 -1.6667564e-19
-2.0891536e-19 -0.22743427 -2.123402e-19
-2.0891536e-19 -0.22743427 -2.5800476e-19
-2.0891536e-19 -0.22743427 -3.0366932e-19
-6.3681877e-20 0.32806726 -3.7378493e-20
-6.3681877e-20 0.32806726 -5.1222379e-20
-6.3681877e-20 0.32806726 -6.5066266e-20
-6.3681877e-20 0.32806726 -7.8910152e-20
-6.3681877e-20 0.32806726 -9.2754038e-20
8.6015923e-19 0.2515313 3.9098147e-19
8.6015923e-19 0.2515313 5.4737406e-19
8.6015923e-19 0.2515313 7.0376664e-19
8.6015923e-19 0.2515313 8.6015923e-19
8.6015923e-19 0.2515313 1.0165518e-18
4.4201137e-20 0.21323806 2.0400525e-20
4.4201137e-20 0.21323806 2.8400731e-20
4.4201137e-20 0.21323806 3.6400937e-20
4.4201137e-20 0.21323806 4.4401142e-20
4.4201137e-20 0.21323806 5.2401348e-20
6.2990264e-19 -0.15770295 2.9508952e-19
6.2990264e-19 -0.15770295 4.0858549e-19
6.2990264e-19 -0.15770295 5.2208147e-19
6.2990264e-19 -0.15770295 6.3557744e-19
6.2990264e-19 -0.15770295 7.4907341e-19
-2.5457992e-19 -0.22743427 -1.2101108e-19
-2.5457992e-19 -0.22743427 -1.6667564e-19
-2.5457992e-19 -0.22743427 -2.123402e-19
-2.5457992e-19 -0.22743427 -2.5800476e-19
-2.5457992e-19 -0.22743427 -3.0366932e-19
-7.7525763e-20 0.32806726 -3.7378493e-20
-7.7525763e-20 0.32806726 -5.1222379e-20
-7.7525763e-20 0.32806726 -6.5066266e-20
-7.7525763e-20 0.32806726 -7.8910152e-20
-7.7525763e-20 0.32806726 -9.2754038e-20
1.0165518e-18 0.2515313 3.9098147e-19
1.0165518e-18 0.2515313 5.4737406e-19
1.0165518e-18 0.2515313 7.0376664e-19
1.0165518e-18 0.2515313 8.6015923e-19
1.0165518e-18 0.2515313 1.0165518e-18
5.2201343e-20 0.21323806 2.0400525e-20
5.2201343e-20 0.21323806 2.8400731e-20
5.2201343e-20 0.21323806 3.6400937e-20
5.2201343e-20 0.21323806 4.4401142e-20
5.2201343e-20 0.21323806 5.2401348e-20
7.4339861e-19 -0.15770295 2.9508952e-19
7.4339861e-19 -0.15770295 4.0858549e-19
7.4339861e-19 -0.15770295 5.2208147e-19
7.4339861e-19 -0.15770295 6.3557744e-19
7.4339861e-19 -0.15770295 7.4907341e-19
-3.0024448e-19 -0.22743427 -1.2101108e-19
-3.0024448e-19 -0.22743427 -1.6667564e-19
-3.0024448e-19 -0.22743427 -2.123402e-19
-3.0024448e-19 -0.22743427 -2.5800476e-19
-3.0024448e-19 -0.22743427 -3.0366932e-19
-9.136965e-20 0.32806726 -3.7378493e-20
-9.136965e-20 0.32806726 -5.1222379e-20
-9.136965e-20 0.32806726 -6.5066266e-20
-9.136965e-20 0.32806726 -7.8910152e-20
-9.136965e-20 0.32806726 -9.2754038e-20
VECTORS q double
1 -2.0892928e-13 6.9931484e-29
1 -2.0892928e-13 9.7902215e-29
1 -2.0892928e-13 1.2587049e-28
1 -2.0892928e-13 1.5384719e-28
1 -2.0892928e-13 1.8182234e-28
1 -3.5863592e-15 6.0226288e-32
1 -3.5863592e-15 8.402572e-32
1 -3.5863592e-15 1.0756797e-31
1 -3.5863592e-15 1.3142801e-31
1 -3.5863592e-15 1.546957e-31
1 -1.7756997e-13 4.7468383e-29
1 -1.7756997e-13 6.5727502e-29
1 -1.7756997e-13 8.3964181e-29
1 -1.7756997e-13 1.0223227e-28
1 -1.7756997e-13 1.2052197e-28
1 1.0880705e-13 1.4022168e-29
1 1.0880705e-13 1.929918e-29
1 1.0880705e-13 2.4607333e-29
1 1.0880705e-13 2.9902252e-29
1 1.0880705e-13 3.5173848e-29
1 3.2726229e-14 1.2110088e-30
1 3.2726229e-14 1.6523812e-30
1 3.2726229e-14 2.1037873e-30
1 3.2726229e-14 2.5486433e-30
1 3.2726229e-14 2.9930947e-30
1 -2.9250099e-13 9.7906499e-29
1 -2.9250099e-13 1.370674e-28
1 -2.9250099e-13 1.762228e-28
1 -2.9250099e-13 2.1539026e-28
1 -2.9250099e-13 2.5455204e-28
1 -5.0066995e-15 8.4190945e-32
1 -5.0066995e-15 1.1739704e-31
1 -5.0066995e-15 1.5032519e-31
1 -5.0066995e-15 1.8381245e-31
1 -5.0066995e-15 2.161066e-31
1 -2.4720525e-13 6.6073928e-29
1 -2.4720525e-13 9.1490684e-29
1 -2.4720525e-13 1.1688034e-28
1 -2.4720525e-13 1.4230965e-28
1 -2.4720525e-13 1.6776523e-28
1 1.5106221e-13 1.9469004e-29
1 1.5106221e-13 2.6796003e-29
1 1.5106221e-13 3.4166991e-29
1 1.5106221e-13 4.1520124e-29
1 1.5106221e-13 4.8839509e-29
1 4.5313241e-14 1.6766847e-30
1 4.5313241e-14 2.2882672e-30
1 4.5313241e-14 2.9149131e-30
1 4.5313241e-14 3.530887e-30
1 4.5313241e-14 4.1452348e-30
1 -3.760727e-13 1.258834e-28
1 -3.760727e-13 1.7622713e-28
1 -3.760727e-13 2.265799e-28
1 -3.760727e-13 2.7693868e-28
1 -3.760727e-13 3.2728923e-28
1 -6.4270398e-15 1.0825029e-31
1 -6.4270398e-15 1.5099431e-31
1 -6.4270398e-15 1.9319327e-31
1 -6.4270398e-15 2.3626047e-31
1 -6.4270398e-15 2.780366e-31
1 -3.1684053e-13 8.4721753e-29
1 -3.1684053e-13 1.1731116e-28
1 -3.1684053e-13 1.4985802e-28
1 -3.1684053e-13 1.8246759e-28
1 -3.1684053e-13 2.1511036e-28
1 1.9331738e-13 2.49104e-29
1 1.9331738e-13 3.4284962e-29
1 1.9331738e-13 4.3714279e-29
1 1.9331738e-13 5.3123557e-29
1 1.9331738e-13 6.2486154e-29
1 5.7900252e-14 2.1436393e-30
1 5.7900252e-14 2.9250591e-30
1 5.7900252e-14 3.7250038e-30
1 5.7900252e-14 4.5114995e-30
1 5.7900252e-14 5.2983639e-30
1 -4.5964441e-13 1.5385063e-28
1 -4.5964441e-13 2.1538923e-28
1 -4.5964441e-13 2.7692192e-28
1 -4.5964441e-13 3.3846926e-28
1 -4.5964441e-13 4.0000065e-28
1 -7.84738e-15 1.3214535e-31
1 -7.84738e-15 1.8430519e-31
1 -7.84738e-15 2.3574732e-31
1 -7.84738e-15 2.8836373e-31
1 -7.84738e-15 3.3911277e-31
1 -3.8647581e-13 1.0334712e-28
1 -3.8647581e-13 1.4309766e-28
1 -3.8647581e-13 1.8280404e-28
1 -3.8647581e-13 2.2258359e-28
1 -3.8647581e-13 2.6240033e-28
1 2.3557254e-13 3.0361505e-29
1 2.3557254e-13 4.1786088e-29
1 2.3557254e-13 5.3280574e-29
1 2.3557254e-13 6.4746458e-29
1 2.3557254e-13 7.615896e-29
1 7.0487263e-14 2.609086e-30
1 7.0487263e-14 3.5602135e-30
1 7.0487263e-14 4.5348694e-30
1 7.0487263e-14 5.4919886e-30
1 7.0487263e-14 6.4503847e-30
1 -5.4321612e-13 1.8182035e-28
1 -5.4321612e-13 2.5454988e-28
1 -5.4321612e-13 3.2726087e-28
1 -5.4321612e-13 4.0000843e-28
1 -5.4321612e-13 4.7275218e-28
1 -9.2677203e-15 1.5618617e-31
1 -9.2677203e-15 2.1782951e-31
1 -9.2677203e-15 2.7899383e-31
1 -9.2677203e-15 3.4073357e-31
1 -9.2677203e-15 4.0100083e-31
1 -4.5611109e-13 1.2194428e-28
1 -4.5611109e-13 1.6885541e-28
1 -4.5611109e-13 2.1569967e-28
1 -4.5611109e-13 2.6264116e-28
1 -4.5611109e-13 3.0962154e-28
1 2.7782771e-13 3.5804206e-29
1 2.7782771e-13 4.9286528e-29
1 2.7782771e-13 6.2835953e-29
1 2.7782771e-13 7.6358184e-29
1 2.7782771e-13 8.9820145e-29
1 8.3074275e-14 3.0803324e-30
1 8.3074275e-14 4.2041175e-30
1 8.3074275e-14 5.3521408e-30
1 8.3074275e-14 6.4832027e-30
1 8.3074275e-14 7.6141884e-30
