# vtk DataFile Version 4.0
hesp visualization file
ASCII
DATASET UNSTRUCTURED_GRID
POINTS 125 double
0.5 0.21034378 0.5
0.5 0.21034378 0.7
0.5 0.21034378 0.9
0.5 0.21034378 1.1
0.5 0.21034378 1.3
0.505 0.25544763 0.51
0.505 0.25544763 0.71
0.505 0.25544763 0.91
0.505 0.25544763 1.11
0.505 0.25544763 1.31
0.51 0.21081567 0.52
0.51 0.21081567 0.72
0.51 0.21081567 0.92
0.51 0.21081567 1.12
0.51 0.21081567 1.32
0.515 0.26808883 0.53
0.515 0.26808883 0.73
0.515 0.26808883 0.93
0.515 0.26808883 1.13
0.515 0.26808883 1.33
0.52 0.23926457 0.54
0.52 0.23926457 0.74
0.52 0.23926457 0.94
0.52 0.23926457 1.14
0.52 0.23926457 1.34
0.7 0.21034378 0.5
0.7 0.21034378 0.7
0.7 0.21034378 0.9
0.7 0.21034378 1.1
0.7 0.21034378 1.3
0.705 0.25544763 0.51
0.705 0.25544763 0.71
0.705 0.25544763 0.91
0.705 0.25544763 1.11
0.705 0.25544763 1.31
0.71 0.21081567 0.52
0.71 0.21081567 0.72
0.71 0.21081567 0.92
0.71 0.21081567 1.12
0.71 0.21081567 1.32
0.715 0.26808883 0.53
0.715 0.26808883 0.73
0.715 0.26808883 0.93
0.715 0.26808883 1.13
0.715 0.26808883 1.33
0.72 0.23926457 0.54
0.72 0.23926457 0.74
0.72 0.23926457 0.94
0.72 0.23926457 1.14
0.72 0.23926457 1.34
0.9 0.21034378 0.5
0.9 0.21034378 0.7
0.9 0.21034378 0.9
0.9 0.21034378 1.1
0.9 0.21034378 1.3
0.905 0.25544763 0.51
0.905 0.25544763 0.71
0.905 0.25544763 0.91
0.905 0.25544763 1.11
0.905 0.25544763 1.31
0.91 0.21081567 0.52
0.91 0.21081567 0.72
0.91 0.21081567 0.92
0.91 0.21081567 1.12
0.91 0.21081567 1.32
0.915 0.26808883 0.53
0.915 0.26808883 0.73
0.915 0.26808883 0.93
0.915 0.26808883 1.13
0.915 0.26808883 1.33
0.92 0.23926457 0.54
0.92 0.23926457 0.74
0.92 0.23926457 0.94
0.92 0.23926457 1.14
0.92 0.23926457 1.34
1.1 0.21034378 0.5
1.1 0.21034378 0.7
1.1 0.21034378 0.9
1.1 0.21034378 1.1
1.1 0.21034378 1.3
1.105 0.25544763 0.51
1.105 0.25544763 0.71
1.105 0.25544763 0.91
1.105 0.25544763 1.11
1.105 0.25544763 1.31
1.11 0.21081567 0.52
1.11 0.21081567 0.72
1.11 0.21081567 0.92
1.11 0.21081567 1.12
1.11 0.21081567 1.32
1.115 0.26808883 0.53
1.115 0.26808883 0.73
1.115 0.26808883 0.93
1.115 0.26808883 1.13
1.115 0.26808883 1.33
1.12 0.23926457 0.54
1.12 0.23926457 0.74
1.12 0.23926457 0.94
1.12 0.23926457 1.14
1.12 0.23926457 1.34
1.3 0.21034378 0.5
1.3 0.21034378 0.7
1.3 0.21034378 0.9
1.3 0.21034378 1.1
1.3 0.21034378 1.3
1.305 0.25544763 0.51
1.305 0.25544763 0.71
1.305 0.25544763 0.91
1.305 0.25544763 1.11
1.305 0.25544763 1.31
1.31 0.21081567 0.52
1.31 0.21081567 0.72
1.31 0.21081567 0.92
1.31 0.21081567 1.12
1.31 0.21081567 1.32
1.315 0.26808883 0.53
1.315 0.26808883 0.73
1.315 0.26808883 0.93
1.315 0.26808883 1.13
1.315 0.26808883 1.33
1.32 0.23926457 0.54
1.32 0.23926457 0.74
1.32 0.23926457 0.94
1.32 0.23926457 1.14
1.32 0.23926457 1.34
CELLS 0 0
CELL_TYPES 0
POINT_DATA 125
SCALARS m double
LOOKUP_TABLE default
1
1
1
1
1
1
1
1
1
1
1
1
1
1
1
1
1
1
1
1
1
1
1
1
1
1
1
1
1
1
1
1
1
1
1
1
1
1
1
1
1
1
1
1
1
1
1
1
1
1
1
1
1
1
1
1
1
1
1
1
1
1
1
1
1
1
1
1
1
1
1
1
1
1
1
1
1
1
1
1
1
1
1
1
1
1
1
1
1
1
1
1
1
1
1
1
1
1
1
1
1
1
1
1
1
1
1
1
1
1
1
1
1
1
1
1
1
1
1
1
1
1
1
1
1
SCALARS r double
LOOKUP_TABLE default
0.1
0.1
0.1
0.1
0.1
0.1
0.1
0.1
0.1
0.1
0.1
0.1
0.1
0.1
0.1
0.1
0.1
0.1
0.1
0.1
0.1
0.1
0.1
0.1
0.1
0.1
0.1
0.1
0.1
0.1
0.1
0.1
0.1
0.1
0.1
0.1
0.1
0.1
0.1
0.1
0.1
0.1
0.1
0.1
0.1
0.1
0.1
0.1
0.1
0.1
0.1
0.1
0.1
0.1
0.1
0.1
0.1
0.1
0.1
0.1
0.1
0.1
0.1
0.1
0.1
0.1
0.1
0.1
0.1
0.1
0.1
0.1
0.1
0.1
0.1
0.1
0.1
0.1
0.1
0.1
0.1
0.1
0.1
0.1
0.1
0.1
0.1
0.1
0.1
0.1
0.1
0.1
0.1
0.1
0.1
0.1
0.1
0.1
0.1
0.1
0.1
0.1
0.1
0.1
0.1
0.1
0.1
0.1
0.1
0.1
0.1
0.1
0.1
0.1
0.1
0.1
0.1
0.1
0.1
0.1
0.1
0.1
0.1
0.1
0.1
VECTORS v double
5.9720413e-19 -0.32749868 5.9720413e-19
5.9720413e-19 -0.32749868 8.3608579e-19
5.9720413e-19 -0.32749868 1.0749674e-18
5.9720413e-19 -0.32749868 1.3138491e-18
5.9720413e-19 -0.32749868 1.5527307e-18
1.0818901e-19 -0.18665146 1.0926018e-19
1.0818901e-19 -0.18665146 1.5210731e-19
1.0818901e-19 -0.18665146 1.9495444e-19
1.0818901e-19 -0.18665146 2.3780158e-19
1.0818901e-19 -0.18665146 2.8064871e-19
5.2982483e-19 0.08469595 5.4021355e-19
5.2982483e-19 0.08469595 7.4798799e-19
5.2982483e-19 0.08469595 9.5576243e-19
5.2982483e-19 0.08469595 1.1635369e-18
5.2982483e-19 0.08469595 1.3713113e-18
-1.5637063e-19 -0.063810624 -1.6092512e-19
-1.5637063e-19 -0.063810624 -2.2165158e-19
-1.5637063e-19 -0.063810624 -2.8237804e-19
-1.5637063e-19 -0.063810624 -3.431045e-19
-1.5637063e-19 -0.063810624 -4.0383096e-19
-3.6345259e-20 -0.25844996 -3.7743154e-20
-3.6345259e-20 -0.25844996 -5.17221e-20
-3.6345259e-20 -0.25844996 -6.5701046e-20
-3.6345259e-20 -0.25844996 -7.9679992e-20
-3.6345259e-20 -0.25844996 -9.3658938e-20
8.3608579e-19 -0.32749868 5.9720413e-19
8.3608579e-19 -0.32749868 8.3608579e-19
8.3608579e-19 -0.32749868 1.0749674e-18
8.3608579e-19 -0.32749868 1.3138491e-18
8.3608579e-19 -0.32749868 1.5527307e-18
1.5103614e-19 -0.18665146 1.0926018e-19
1.5103614e-19 -0.18665146 1.5210731e-19
1.5103614e-19 -0.18665146 1.9495444e-19
1.5103614e-19 -0.18665146 2.3780158e-19
1.5103614e-19 -0.18665146 2.8064871e-19
7.3759927e-19 0.08469595 5.4021355e-19
7.3759927e-19 0.08469595 7.4798799e-19
7.3759927e-19 0.08469595 9.5576243e-19
7.3759927e-19 0.08469595 1.1635369e-18
7.3759927e-19 0.08469595 1.3713113e-18
-2.1709709e-19 -0.063810624 -1.6092512e-19
-2.1709709e-19 -0.063810624 -2.2165158e-19
-2.1709709e-19 -0.063810624 -2.8237804e-19
-2.1709709e-19 -0.063810624 -3.431045e-19
-2.1709709e-19 -0.063810624 -4.0383096e-19
-5.0324205e-20 -0.25844996 -3.7743154e-20
-5.0324205e-20 -0.25844996 -5.17221e-20
-5.0324205e-20 -0.25844996 -6.5701046e-20
-5.0324205e-20 -0.25844996 -7.9679992e-20
-5.0324205e-20 -0.25844996 -9.3658938e-20
1.0749674e-18 -0.32749868 5.9720413e-19
1.0749674e-18 -0.32749868 8.3608579e-19
1.0749674e-18 -0.32749868 1.0749674e-18
1.0749674e-18 -0.32749868 1.3138491e-18
1.0749674e-18 -0.32749868 1.5527307e-18
1.9388327e-19 -0.18665146 1.0926018e-19
1.9388327e-19 -0.18665146 1.5210731e-19
1.9388327e-19 -0.18665146 1.9495444e-19
1.9388327e-19 -0.18665146 2.3780158e-19
1.9388327e-19 -0.18665146 2.8064871e-19
9.4537371e-19 0.08469595 5.4021355e-19
9.4537371e-19 0.08469595 7.4798799e-19
9.4537371e-19 0.08469595 9.5576243e-19
9.4537371e-19 0.08469595 1.1635369e-18
9.4537371e-19 0.08469595 1.3713113e-18
-2.7782355e-19 -0.063810624 -1.6092512e-19
-2.7782355e-19 -0.063810624 -2.2165158e-19
-2.7782355e-19 -0.063810624 -2.8237804e-19
-2.7782355e-19 -0.063810624 -3.431045e-19
-2.7782355e-19 -0.063810624 -4.0383096e-19
-6.4303151e-20 -0.25844996 -3.7743154e-20
-6.4303151e-20 -0.25844996 -5.17221e-20
-6.4303151e-20 -0.25844996 -6.5701046e-20
-6.4303151e-20 -0.25844996 -7.9679992e-20
-6.4303151e-20 -0.25844996 -9.3658938e-20
1.3138491e-18 -0.32749868 5.9720413e-19
1.3138491e-18 -0.32749868 8.3608579e-19
1.3138491e-18 -0.32749868 1.0749674e-18
1.3138491e-18 -0.32749868 1.3138491e-18
1.3138491e-18 -0.32749868 1.5527307e-18
2.367304e-19 -0.18665146 1.0926018e-19
2.367304e-19 -0.18665146 1.5210731e-19
2.367304e-19 -0.18665146 1.9495444e-19
2.367304e-19 -0.18665146 2.3780158e-19
2.367304e-19 -0.18665146 2.8064871e-19
1.1531482e-18 0.08469595 5.4021355e-19
1.1531482e-18 0.08469595 7.4798799e-19
1.1531482e-18 0.08469595 9.5576243e-19
1.1531482e-18 0.08469595 1.1635369e-18
1.1531482e-18 0.08469595 1.3713113e-18
-3.3855001e-19 -0.063810624 -1.6092512e-19
-3.3855001e-19 -0.063810624 -2.2165158e-19
-3.3855001e-19 -0.063810624 -2.8237804e-19
-3.3855001e-19 -0.063810624 -3.431045e-19
-3.3855001e-19 -0.063810624 -4.0383096e-19
-7.8282097e-20 -0.25844996 -3.7743154e-20
-7.8282097e-20 -0.25844996 -5.17221e-20
-7.8282097e-20 -0.25844996 -6.5701046e-20
-7.8282097e-20 -0.25844996 -7.9679992e-20
-7.8282097e-20 -0.25844996 -9.3658938e-20
1.5527307e-18 -0.32749868 5.9720413e-19
1.5527307e-18 -0.32749868 8.3608579e-19
1.5527307e-18 -0.32749868 1.0749674e-18
1.5527307e-18 -0.32749868 1.3138491e-18
1.5527307e-18 -0.32749868 1.5527307e-18
2.7957753e-19 -0.18665146 1.0926018e-19
2.7957753e-19 -0.18665146 1.5210731e-19
2.7957753e-19 -0.18665146 1.9495444e-19
2.7957753e-19 -0.18665146 2.3780158e-19
2.7957753e-19 -0.18665146 2.8064871e-19
1.3609226e-18 0.08469595 5.4021355e-19
1.3609226e-18 0.08469595 7.4798799e-19
1.3609226e-18 0.08469595 9.5576243e-19
1.3609226e-18 0.08469595 1.1635369e-18
1.3609226e-18 0.08469595 1.3713113e-18
-3.9927647e-19 -0.063810624 -1.6092512e-19
-3.9927647e-19 -0.063810624 -2.2165158e-19
-3.9927647e-19 -0.063810624 -2.8237804e-19
-3.9927647e-19 -0.063810624 -3.431045e-19
-3.9927647e-19 -0.063810624 -4.0383096e-19
-9.2261043e-20 -0.25844996 -3.7743154e-20
-9.2261043e-20 -0.25844996 -5.17221e-20
-9.2261043e-20 -0.25844996 -6.5701046e-20
-9.2261043e-20 -0.25844996 -7.9679992e-20
-9.2261043e-20 -0.25844996 -9.3658938e-20
VECTORS q double
1 -5.2841162e-13 2.9789117e-28
1 -5.2841162e-13 4.1704868e-28
1 -5.2841162e-13 5.3620198e-28
1 -5.2841162e-13 6.5536292e-28
1 -5.2841162e-13 7.7454596e-28
1 -4.5529966e-14 5.0529272e-30
1 -4.5529966e-14 7.036829e-30
1 -4.5529966e-14 9.0145173e-30
1 -4.5529966e-14 1.1004771e-29
1 -4.5529966e-14 1.2981869e-29
1 -4.3187221e-13 2.0165787e-28
1 -4.3187221e-13 2.7921509e-28
1 -4.3187221e-13 3.5672461e-28
1 -4.3187221e-13 4.3430856e-28
1 -4.3187221e-13 5.119594e-28
1 2.0971288e-13 3.3945266e-29
1 2.0971288e-13 4.6725033e-29
1 2.0971288e-13 5.9571296e-29
1 2.0971288e-13 7.2388505e-29
1 2.0971288e-13 8.5162237e-29
1 5.8616826e-14 2.0688907e-30
1 5.8616826e-14 2.8168967e-30
1 5.8616826e-14 3.5940331e-30
1 5.8616826e-14 4.3478107e-30
1 5.8616826e-14 5.1071488e-30
1 -7.3977627e-13 4.1704695e-28
1 -7.3977627e-13 5.8386794e-28
1 -7.3977627e-13 7.507089e-28
1 -7.3977627e-13 9.1750858e-28
1 -7.3977627e-13 1.084352e-27
1 -6.3561636e-14 7.0517958e-30
1 -6.3561636e-14 9.8216732e-30
1 -6.3561636e-14 1.2581141e-29
1 -6.3561636e-14 1.5359343e-29
1 -6.3561636e-14 1.8116696e-29
1 -6.0123386e-13 2.8073304e-28
1 -6.0123386e-13 3.8870813e-28
1 -6.0123386e-13 4.9661948e-28
1 -6.0123386e-13 6.0461683e-28
1 -6.0123386e-13 7.1269792e-28
1 2.9115477e-13 4.713546e-29
1 2.9115477e-13 6.4882803e-29
1 2.9115477e-13 8.2723267e-29
1 2.9115477e-13 1.0052153e-28
1 2.9115477e-13 1.1825934e-28
1 8.1161759e-14 2.8626073e-30
1 8.1161759e-14 3.8985227e-30
1 8.1161759e-14 4.976771e-30
1 8.1161759e-14 6.0198452e-30
1 8.1161759e-14 7.068351e-30
1 -9.5114092e-13 5.3620835e-28
1 -9.5114092e-13 7.5065605e-28
1 -9.5114092e-13 9.6516964e-28
1 -9.5114092e-13 1.1796575e-27
1 -9.5114092e-13 1.3941703e-27
1 -8.1593305e-14 9.0550903e-30
1 -8.1593305e-14 1.261151e-29
1 -8.1593305e-14 1.6154907e-29
1 -8.1593305e-14 1.9720295e-29
1 -8.1593305e-14 2.3264484e-29
1 -7.7059552e-13 3.598721e-28
1 -7.7059552e-13 4.982809e-28
1 -7.7059552e-13 6.3659603e-28
1 -7.7059552e-13 7.7506598e-28
1 -7.7059552e-13 9.136255e-28
1 3.7259666e-13 6.0308449e-29
1 3.7259666e-13 8.3014296e-29
1 3.7259666e-13 1.0583743e-28
1 3.7259666e-13 1.286121e-28
1 3.7259666e-13 1.5130298e-28
1 1.0370669e-13 3.6641649e-30
1 1.0370669e-13 4.9891636e-30
1 1.0370669e-13 6.3672179e-30
1 1.0370669e-13 7.7006497e-30
1 1.0370669e-13 9.0454586e-30
1 -1.1625056e-12 6.5535734e-28
1 -1.1625056e-12 9.175052e-28
1 -1.1625056e-12 1.1796418e-27
1 -1.1625056e-12 1.441793e-27
1 -1.1625056e-12 1.7039769e-27
1 -9.9624975e-14 1.1051532e-29
1 -9.9624975e-14 1.5391209e-29
1 -9.9624975e-14 1.9714565e-29
1 -9.9624975e-14 2.4068771e-29
1 -9.9624975e-14 2.8392056e-29
1 -9.3995717e-13 4.3899799e-28
1 -9.3995717e-13 6.0783032e-28
1 -9.3995717e-13 7.7656535e-28
1 -9.3995717e-13 9.4548257e-28
1 -9.3995717e-13 1.1144995e-27
1 4.5403856e-13 7.350625e-29
1 4.5403856e-13 1.0117823e-28
1 4.5403856e-13 1.2899685e-28
1 4.5403856e-13 1.5675354e-28
1 4.5403856e-13 1.8441035e-28
1 1.2625163e-13 4.4577934e-30
1 1.2625163e-13 6.0701774e-30
1 1.2625163e-13 7.7481335e-30
1 1.2625163e-13 9.3698696e-30
1 1.2625163e-13 1.100757e-29
1 -1.3738702e-12 7.7448672e-28
1 -1.3738702e-12 1.0842906e-27
1 -1.3738702e-12 1.3940746e-27
1 -1.3738702e-12 1.7038936e-27
1 -1.3738702e-12 2.013773e-27
1 -1.1765664e-13 1.3059782e-29
1 -1.1765664e-13 1.8187743e-29
1 -1.1765664e-13 2.3296814e-29
1 -1.1765664e-13 2.8439552e-29
1 -1.1765664e-13 3.3548913e-29
1 -1.1093188e-12 5.1800973e-28
1 -1.1093188e-12 7.1724347e-28
1 -1.1093188e-12 9.163333e-28
1 -1.1093188e-12 1.1156786e-27
1 -1.1093188e-12 1.3150996e-27
1 5.3548045e-13 8.6689049e-29
1 5.3548045e-13 1.1934185e-28
1 5.3548045e-13 1.521398e-28
1 5.3548045e-13 1.8487363e-28
1 5.3548045e-13 2.1749846e-28
1 1.4879656e-13 5.2685939e-30
1 1.4879656e-13 7.1756823e-30
1 1.4879656e-13 9.1543464e-30
1 1.4879656e-13 1.1073034e-29
1 1.4879656e-13 1.3007566e-29
