# vtk DataFile Version 4.0
hesp visualization file
ASCII
DATASET UNSTRUCTURED_GRID
POINTS 125 double
0.5 0.24307014 0.5
0.5 0.24307014 0.7
0.5 0.24307014 0.9
0.5 0.24307014 1.1
0.5 0.24307014 1.3
0.505 0.24320083 0.51
0.505 0.24320083 0.71
0.505 0.24320083 0.91
0.505 0.24320083 1.11
0.505 0.24320083 1.31
0.51 0.2463202 0.52
0.51 0.2463202 0.72
0.51 0.2463202 0.92
0.51 0.2463202 1.12
0.51 0.2463202 1.32
0.515 0.21085506 0.53
0.515 0.21085506 0.73
0.515 0.21085506 0.93
0.515 0.21085506 1.13
0.515 0.21085506 1.33
0.52 0.19721173 0.54
0.52 0.19721173 0.74
0.52 0.19721173 0.94
0.52 0.19721173 1.14
0.52 0.19721173 1.34
0.7 0.24307014 0.5
0.7 0.24307014 0.7
0.7 0.24307014 0.9
0.7 0.24307014 1.1
0.7 0.24307014 1.3
0.705 0.24320083 0.51
0.705 0.24320083 0.71
0.705 0.24320083 0.91
0.705 0.24320083 1.11
0.705 0.24320083 1.31
0.71 0.2463202 0.52
0.71 0.2463202 0.72
0.71 0.2463202 0.92
0.71 0.2463202 1.12
0.71 0.2463202 1.32
0.715 0.21085506 0.53
0.715 0.21085506 0.73
0.715 0.21085506 0.93
0.715 0.21085506 1.13
0.715 0.21085506 1.33
0.72 0.19721173 0.54
0.72 0.19721173 0.74
0.72 0.19721173 0.94
0.72 0.19721173 1.14
0.72 0.19721173 1.34
0.9 0.24307014 0.5
0.9 0.24307014 0.7
0.9 0.24307014 0.9
0.9 0.24307014 1.1
0.9 0.24307014 1.3
0.905 0.24320083 0.51
0.905 0.24320083 0.71
0.905 0.24320083 0.91
0.905 0.24320083 1.11
0.905 0.24320083 1.31
0.91 0.2463202 0.52
0.91 0.2463202 0.72
0.91 0.2463202 0.92
0.91 0.2463202 1.12
0.91 0.2463202 1.32
0.915 0.21085506 0.53
0.915 0.21085506 0.73
0.915 0.21085506 0.93
0.915 0.21085506 1.13
0.915 0.21085506 1.33
0.92 0.19721173 0.54
0.92 0.19721173 0.74
0.92 0.19721173 0.94
0.92 0.19721173 1.14
0.92 0.19721173 1.34
1.1 0.24307014 0.5
1.1 0.24307014 0.7
1.1 0.24307014 0.9
1.1 0.24307014 1.1
1.1 0.24307014 1.3
1.105 0.24320083 0.51
1.105 0.24320083 0.71
1.105 0.24320083 0.91
1.105 0.24320083 1.11
1.105 0.24320083 1.31
1.11 0.2463202 0.52
1.11 0.2463202 0.72
1.11 0.2463202 0.92
1.11 0.2463202 1.12
1.11 0.2463202 1.32
1.115 0.21085506 0.53
1.115 0.21085506 0.73
1.115 0.21085506 0.93
1.115 0.21085506 1.13
1.115 0.21085506 1.33
1.12 0.19721173 0.54
1.12 0.19721173 0.74
1.12 0.19721173 0.94
1.12 0.19721173 1.14
1.12 0.19721173 1.34
1.3 0.24307014 0.5
1.3 0.24307014 0.7
1.3 0.24307014 0.9
1.3 0.24307014 1.1
1.3 0.24307014 1.3
1.305 0.24320083 0.51
1.305 0.24320083 0.71
1.305 0.24320083 0.91
1.305 0.24320083 1.11
1.305 0.24320083 1.31
1.31 0.2463202 0.52
1.31 0.2463202 0.72
1.31 0.2463202 0.92
1.31 0.2463202 1.12
1.31 0.2463202 1.32
1.315 0.21085506 0.53
1.315 0.21085506 0.73
1.315 0.21085506 0.93
1.315 0.21085506 1.13
1.315 0.21085506 1.33
1.32 0.19721173 0.54
1.32 0.19721173 0.74
1.32 0.19721173 0.94
1.32 0.19721173 1.14
1.32 0.19721173 1.34
CELLS 0 0
CELL_TYPES 0
POINT_DATA 125
SCALARS m double
LOOKUP_TABLE default
1
1
1
1
1
1
1
1
1
1
1
1
1
1
1
1
1
1
1
1
1
1
1
1
1
1
1
1
1
1
1
1
1
1
1
1
1
1
1
1
1
1
1
1
1
1
1
1
1
1
1
1
1
1
1
1
1
1
1
1
1
1
1
1
1
1
1
1
1
1
1
1
1
1
1
1
1
1
1
1
1
1
1
1
1
1
1
1
1
1
1
1
1
1
1
1
1
1
1
1
1
1
1
1
1
1
1
1
1
1
1
1
1
1
1
1
1
1
1
1
1
1
1
1
1
SCALARS r double
LOOKUP_TABLE default
0.1
0.1
0.1
0.1
0.1
0.1
0.1
0.1
0.1
0.1
0.1
0.1
0.1
0.1
0.1
0.1
0.1
0.1
0.1
0.1
0.1
0.1
0.1
0.1
0.1
0.1
0.1
0.1
0.1
0.1
0.1
0.1
0.1
0.1
0.1
0.1
0.1
0.1
0.1
0.1
0.1
0.1
0.1
0.1
0.1
0.1
0.1
0.1
0.1
0.1
0.1
0.1
0.1
0.1
0.1
0.1
0.1
0.1
0.1
0.1
0.1
0.1
0.1
0.1
0.1
0.1
0.1
0.1
0.1
0.1
0.1
0.1
0.1
0.1
0.1
0.1
0.1
0.1
0.1
0.1
0.1
0.1
0.1
0.1
0.1
0.1
0.1
0.1
0.1
0.1
0.1
0.1
0.1
0.1
0.1
0.1
0.1
0.1
0.1
0.1
0.1
0.1
0.1
0.1
0.1
0.1
0.1
0.1
0.1
0.1
0.1
0.1
0.1
0.1
0.1
0.1
0.1
0.1
0.1
0.1
0.1
0.1
0.1
0.1
0.1
VECTORS v double
1.4866059e-18 0.20276959 1.4866059e-18
1.4866059e-18 0.20276959 2.0812483e-18
1.4866059e-18 0.20276959 2.6758906e-18
1.4866059e-18 0.20276959 3.270533e-18
1.4866059e-18 0.20276959 3.8651753e-18
5.8569104e-19 -0.49395431 5.9148996e-19
5.8569104e-19 -0.49395431 8.2344681e-19
5.8569104e-19 -0.49395431 1.0554037e-18
5.8569104e-19 -0.49395431 1.2873605e-18
5.8569104e-19 -0.49395431 1.5193173e-18
1.3630733e-18 -0.17163746 1.3898003e-18
1.3630733e-18 -0.17163746 1.9243388e-18
1.3630733e-18 -0.17163746 2.4588774e-18
1.3630733e-18 -0.17163746 2.993416e-18
1.3630733e-18 -0.17163746 3.5279545e-18
-2.0957738e-19 -0.31385619 -2.1568158e-19
-2.0957738e-19 -0.31385619 -2.9707085e-19
-2.0957738e-19 -0.31385619 -3.7846013e-19
-2.0957738e-19 -0.31385619 -4.598494e-19
-2.0957738e-19 -0.31385619 -5.4123868e-19
5.1269327e-20 -0.2403831 5.3241224e-20
5.1269327e-20 -0.2403831 7.2960196e-20
5.1269327e-20 -0.2403831 9.2679168e-20
5.1269327e-20 -0.2403831 1.1239814e-19
5.1269327e-20 -0.2403831 1.3211711e-19
2.0812483e-18 0.20276959 1.4866059e-18
2.0812483e-18 0.20276959 2.0812483e-18
2.0812483e-18 0.20276959 2.6758906e-18
2.0812483e-18 0.20276959 3.270533e-18
2.0812483e-18 0.20276959 3.8651753e-18
8.1764789e-19 -0.49395431 5.9148996e-19
8.1764789e-19 -0.49395431 8.2344681e-19
8.1764789e-19 -0.49395431 1.0554037e-18
8.1764789e-19 -0.49395431 1.2873605e-18
8.1764789e-19 -0.49395431 1.5193173e-18
1.8976119e-18 -0.17163746 1.3898003e-18
1.8976119e-18 -0.17163746 1.9243388e-18
1.8976119e-18 -0.17163746 2.4588774e-18
1.8976119e-18 -0.17163746 2.993416e-18
1.8976119e-18 -0.17163746 3.5279545e-18
-2.9096666e-19 -0.31385619 -2.1568158e-19
-2.9096666e-19 -0.31385619 -2.9707085e-19
-2.9096666e-19 -0.31385619 -3.7846013e-19
-2.9096666e-19 -0.31385619 -4.598494e-19
-2.9096666e-19 -0.31385619 -5.4123868e-19
7.0988299e-20 -0.2403831 5.3241224e-20
7.0988299e-20 -0.2403831 7.2960196e-20
7.0988299e-20 -0.2403831 9.2679168e-20
7.0988299e-20 -0.2403831 1.1239814e-19
7.0988299e-20 -0.2403831 1.3211711e-19
2.6758906e-18 0.20276959 1.4866059e-18
2.6758906e-18 0.20276959 2.0812483e-18
2.6758906e-18 0.20276959 2.6758906e-18
2.6758906e-18 0.20276959 3.270533e-18
2.6758906e-18 0.20276959 3.8651753e-18
1.0496047e-18 -0.49395431 5.9148996e-19
1.0496047e-18 -0.49395431 8.2344681e-19
1.0496047e-18 -0.49395431 1.0554037e-18
1.0496047e-18 -0.49395431 1.2873605e-18
1.0496047e-18 -0.49395431 1.5193173e-18
2.4321505e-18 -0.17163746 1.3898003e-18
2.4321505e-18 -0.17163746 1.9243388e-18
2.4321505e-18 -0.17163746 2.4588774e-18
2.4321505e-18 -0.17163746 2.993416e-18
2.4321505e-18 -0.17163746 3.5279545e-18
-3.7235593e-19 -0.31385619 -2.1568158e-19
-3.7235593e-19 -0.31385619 -2.9707085e-19
-3.7235593e-19 -0.31385619 -3.7846013e-19
-3.7235593e-19 -0.31385619 -4.598494e-19
-3.7235593e-19 -0.31385619 -5.4123868e-19
9.0707271e-20 -0.2403831 5.3241224e-20
9.0707271e-20 -0.2403831 7.2960196e-20
9.0707271e-20 -0.2403831 9.2679168e-20
9.0707271e-20 -0.2403831 1.1239814e-19
9.0707271e-20 -0.2403831 1.3211711e-19
3.270533e-18 0.20276959 1.4866059e-18
3.270533e-18 0.20276959 2.0812483e-18
3.270533e-18 0.20276959 2.6758906e-18
3.270533e-18 0.20276959 3.270533e-18
3.270533e-18 0.20276959 3.8651753e-18
1.2815616e-18 -0.49395431 5.9148996e-19
1.2815616e-18 -0.49395431 8.2344681e-19
1.2815616e-18 -0.49395431 1.0554037e-18
1.2815616e-18 -0.49395431 1.2873605e-18
1.2815616e-18 -0.49395431 1.5193173e-18
2.966689e-18 -0.17163746 1.3898003e-18
2.966689e-18 -0.17163746 1.9243388e-18
2.966689e-18 -0.17163746 2.4588774e-18
2.966689e-18 -0.17163746 2.993416e-18
2.966689e-18 -0.17163746 3.5279545e-18
-4.5374521e-19 -0.31385619 -2.1568158e-19
-4.5374521e-19 -0.31385619 -2.9707085e-19
-4.5374521e-19 -0.31385619 -3.7846013e-19
-4.5374521e-19 -0.31385619 -4.598494e-19
-4.5374521e-19 -0.31385619 -5.4123868e-19
1.1042624e-19 -0.2403831 5.3241224e-20
1.1042624e-19 -0.2403831 7.2960196e-20
1.1042624e-19 -0.2403831 9.2679168e-20
1.1042624e-19 -0.2403831 1.1239814e-19
1.1042624e-19 -0.2403831 1.3211711e-19
3.8651753e-18 0.20276959 1.4866059e-18
3.8651753e-18 0.20276959 2.0812483e-18
3.8651753e-18 0.20276959 2.6758906e-18
3.8651753e-18 0.20276959 3.270533e-18
3.8651753e-18 0.20276959 3.8651753e-18
1.5135184e-18 -0.49395431 5.9148996e-19
1.5135184e-18 -0.49395431 8.2344681e-19
1.5135184e-18 -0.49395431 1.0554037e-18
1.5135184e-18 -0.49395431 1.2873605e-18
1.5135184e-18 -0.49395431 1.5193173e-18
3.5012276e-18 -0.17163746 1.3898003e-18
3.5012276e-18 -0.17163746 1.9243388e-18
3.5012276e-18 -0.17163746 2.4588774e-18
3.5012276e-18 -0.17163746 2.993416e-18
3.5012276e-18 -0.17163746 3.5279545e-18
-5.3513448e-19 -0.31385619 -2.1568158e-19
-5.3513448e-19 -0.31385619 -2.9707085e-19
-5.3513448e-19 -0.31385619 -3.7846013e-19
-5.3513448e-19 -0.31385619 -4.598494e-19
-5.3513448e-19 -0.31385619 -5.4123868e-19
1.3014522e-19 -0.2403831 5.3241224e-20
1.3014522e-19 -0.2403831 7.2960196e-20
1.3014522e-19 -0.2403831 9.2679168e-20
1.3014522e-19 -0.2403831 1.1239814e-19
1.3014522e-19 -0.2403831 1.3211711e-19
VECTORS q double
1 -2.2283761e-12 2.9847137e-27
1 -2.2283761e-12 4.1785624e-27
1 -2.2283761e-12 5.3723681e-27
1 -2.2283761e-12 6.5663183e-27
1 -2.2283761e-12 7.7603996e-27
1 -6.3609768e-13 3.6354592e-28
1 -6.3609768e-13 5.0618703e-28
1 -6.3609768e-13 6.4865109e-28
1 -6.3609768e-13 7.913409e-28
1 -6.3609768e-13 9.3390868e-28
1 -1.9165042e-12 2.3650031e-27
1 -1.9165042e-12 3.2746089e-27
1 -1.9165042e-12 4.1842048e-27
1 -1.9165042e-12 5.0939036e-27
1 -1.9165042e-12 6.003773e-27
1 5.5910933e-13 1.1395186e-28
1 5.5910933e-13 1.5686938e-28
1 5.5910933e-13 1.9997819e-28
1 5.5910933e-13 2.430082e-28
1 5.5910933e-13 2.8592554e-28
1 7.3416141e-14 -4.0086232e-30
1 7.3416141e-14 -5.5638247e-30
1 7.3416141e-14 -6.9976769e-30
1 7.3416141e-14 -8.5353098e-30
1 7.3416141e-14 -1.004151e-29
1 -3.1197265e-12 4.1786302e-27
1 -3.1197265e-12 5.8500408e-27
1 -3.1197265e-12 7.5218642e-27
1 -3.1197265e-12 9.1932048e-27
1 -3.1197265e-12 1.0864918e-26
1 -8.8801756e-13 5.074748e-28
1 -8.8801756e-13 7.0659995e-28
1 -8.8801756e-13 9.0550627e-28
1 -8.8801756e-13 1.1046401e-27
1 -8.8801756e-13 1.3036625e-27
1 -2.6680745e-12 3.292624e-27
1 -2.6680745e-12 4.5590727e-27
1 -2.6680745e-12 5.825383e-27
1 -2.6680745e-12 7.091855e-27
1 -2.6680745e-12 8.3584142e-27
1 7.7623916e-13 1.5829953e-28
1 7.7623916e-13 2.1792641e-28
1 7.7623916e-13 2.7782704e-28
1 7.7623916e-13 3.3759472e-28
1 7.7623916e-13 3.9718625e-28
1 1.0165312e-13 -5.5691367e-30
1 1.0165312e-13 -7.7269529e-30
1 1.0165312e-13 -9.7086663e-30
1 1.0165312e-13 -1.1849712e-29
1 1.0165312e-13 -1.3947123e-29
1 -4.0110769e-12 5.3725998e-27
1 -4.0110769e-12 7.5210847e-27
1 -4.0110769e-12 9.6704653e-27
1 -4.0110769e-12 1.1819635e-26
1 -4.0110769e-12 1.396895e-26
1 -1.1399374e-12 6.5148797e-28
1 -1.1399374e-12 9.0711795e-28
1 -1.1399374e-12 1.1624164e-27
1 -1.1399374e-12 1.4181061e-27
1 -1.1399374e-12 1.6735943e-27
1 -3.4196448e-12 4.2201837e-27
1 -3.4196448e-12 5.8433895e-27
1 -3.4196448e-12 7.4664024e-27
1 -3.4196448e-12 9.089783e-27
1 -3.4196448e-12 1.0713292e-26
1 9.93369e-13 2.0249317e-28
1 9.93369e-13 2.7876199e-28
1 9.93369e-13 3.5536467e-28
1 9.93369e-13 4.3183657e-28
1 9.93369e-13 5.0809344e-28
1 1.2989009e-13 -7.0740127e-30
1 1.2989009e-13 -9.8160204e-30
1 1.2989009e-13 -1.2343407e-29
1 1.2989009e-13 -1.5062537e-29
1 1.2989009e-13 -1.7719607e-29
1 -4.9024274e-12 6.5664148e-27
1 -4.9024274e-12 9.1926491e-27
1 -4.9024274e-12 1.1819305e-26
1 -4.9024274e-12 1.4446013e-26
1 -4.9024274e-12 1.7072993e-26
1 -1.3918573e-12 7.9537628e-28
1 -1.3918573e-12 1.107462e-27
1 -1.3918573e-12 1.4191508e-27
1 -1.3918573e-12 1.7313014e-27
1 -1.3918573e-12 2.04324e-27
1 -4.1712151e-12 5.1480545e-27
1 -4.1712151e-12 7.128117e-27
1 -4.1712151e-12 9.1079579e-27
1 -4.1712151e-12 1.1088037e-26
1 -4.1712151e-12 1.3068686e-26
1 1.2104988e-12 2.4685363e-28
1 1.2104988e-12 3.398259e-28
1 1.2104988e-12 4.33223e-28
1 1.2104988e-12 5.2643157e-28
1 1.2104988e-12 6.1938871e-28
1 1.5812707e-13 -8.6327338e-30
1 1.5812707e-13 -1.1978898e-29
1 1.5812707e-13 -1.5059728e-29
1 1.5812707e-13 -1.8377831e-29
1 1.5812707e-13 -2.1616999e-29
1 -5.7937778e-12 7.7601114e-27
1 -5.7937778e-12 1.0863751e-26
1 -5.7937778e-12 1.3967925e-26
1 -5.7937778e-12 1.707215e-26
1 -5.7937778e-12 2.0176735e-26
1 -1.6437772e-12 9.3937433e-28
1 -1.6437772e-12 1.3079453e-27
1 -1.6437772e-12 1.6760743e-27
1 -1.6437772e-12 2.0447585e-27
1 -1.6437772e-12 2.4131642e-27
1 -4.9227853e-12 6.0746127e-27
1 -4.9227853e-12 8.4110846e-27
1 -4.9227853e-12 1.0747257e-26
1 -4.9227853e-12 1.3084468e-26
1 -4.9227853e-12 1.5420922e-26
1 1.4276287e-12 2.9113462e-28
1 1.4276287e-12 4.0082002e-28
1 1.4276287e-12 5.1093748e-28
1 1.4276287e-12 6.2087415e-28
1 1.4276287e-12 7.3053267e-28
1 1.8636405e-13 -1.0115741e-29
1 1.8636405e-13 -1.4035297e-29
1 1.8636405e-13 -1.7650645e-29
1 1.8636405e-13 -2.153543e-29
1 1.8636405e-13 -2.5336691e-29
