# vtk DataFile Version 4.0
hesp visualization file
ASCII
DATASET UNSTRUCTURED_GRID
POINTS 125 double
0.5 0.24851368 0.5
0.5 0.24851368 0.7
0.5 0.24851368 0.9
0.5 0.24851368 1.1
0.5 0.24851368 1.3
0.505 0.2575968 0.51
0.505 0.2575968 0.71
0.505 0.2575968 0.91
0.505 0.2575968 1.11
0.505 0.2575968 1.31
0.51 0.20996406 0.52
0.51 0.20996406 0.72
0.51 0.20996406 0.92
0.51 0.20996406 1.12
0.51 0.20996406 1.32
0.515 0.26358838 0.53
0.515 0.26358838 0.73
0.515 0.26358838 0.93
0.515 0.26358838 1.13
0.515 0.26358838 1.33
0.52 0.25396387 0.54
0.52 0.25396387 0.74
0.52 0.25396387 0.94
0.52 0.25396387 1.14
0.52 0.25396387 1.34
0.7 0.24851368 0.5
0.7 0.24851368 0.7
0.7 0.24851368 0.9
0.7 0.24851368 1.1
0.7 0.24851368 1.3
0.705 0.2575968 0.51
0.705 0.2575968 0.71
0.705 0.2575968 0.91
0.705 0.2575968 1.11
0.705 0.2575968 1.31
0.71 0.20996406 0.52
0.71 0.20996406 0.72
0.71 0.20996406 0.92
0.71 0.20996406 1.12
0.71 0.20996406 1.32
0.715 0.26358838 0.53
0.715 0.26358838 0.73
0.715 0.26358838 0.93
0.715 0.26358838 1.13
0.715 0.26358838 1.33
0.72 0.25396387 0.54
0.72 0.25396387 0.74
0.72 0.25396387 0.94
0.72 0.25396387 1.14
0.72 0.25396387 1.34
0.9 0.24851368 0.5
0.9 0.24851368 0.7
0.9 0.24851368 0.9
0.9 0.24851368 1.1
0.9 0.24851368 1.3
0.905 0.2575968 0.51
0.905 0.2575968 0.71
0.905 0.2575968 0.91
0.905 0.2575968 1.11
0.905 0.2575968 1.31
0.91 0.20996406 0.52
0.91 0.20996406 0.72
0.91 0.20996406 0.92
0.91 0.20996406 1.12
0.91 0.20996406 1.32
0.915 0.26358838 0.53
0.915 0.26358838 0.73
0.915 0.26358838 0.93
0.915 0.26358838 1.13
0.915 0.26358838 1.33
0.92 0.25396387 0.54
0.92 0.25396387 0.74
0.92 0.25396387 0.94
0.92 0.25396387 1.14
0.92 0.25396387 1.34
1.1 0.24851368 0.5
1.1 0.24851368 0.7
1.1 0.24851368 0.9
1.1 0.24851368 1.1
1.1 0.24851368 1.3
1.105 0.2575968 0.51
1.105 0.2575968 0.71
1.105 0.2575968 0.91
1.105 0.2575968 1.11
1.105 0.2575968 1.31
1.11 0.20996406 0.52
1.11 0.20996406 0.72
1.11 0.20996406 0.92
1.11 0.20996406 1.12
1.11 0.20996406 1.32
1.115 0.26358838 0.53
1.115 0.26358838 0.73
1.115 0.26358838 0.93
1.115 0.26358838 1.13
1.115 0.26358838 1.33
1.12 0.25396387 0.54
1.12 0.25396387 0.74
1.12 0.25396387 0.94
1.12 0.25396387 1.14
1.12 0.25396387 1.34
1.3 0.24851368 0.5
1.3 0.24851368 0.7
1.3 0.24851368 0.9
1.3 0.24851368 1.1
1.3 0.24851368 1.3
1.305 0.2575968 0.51
1.305 0.2575968 0.71
1.305 0.2575968 0.91
1.305 0.2575968 1.11
1.305 0.2575968 1.31
1.31 0.20996406 0.52
1.31 0.20996406 0.72
1.31 0.20996406 0.92
1.31 0.20996406 1.12
1.31 0.20996406 1.32
1.315 0.26358838 0.53
1.315 0.26358838 0.73
1.315 0.26358838 0.93
1.315 0.26358838 1.13
1.315 0.26358838 1.33
1.32 0.25396387 0.54
1.32 0.25396387 0.74
1.32 0.25396387 0.94
1.32 0.25396387 1.14
1.32 0.25396387 1.34
CELLS 0 0
CELL_TYPES 0
POINT_DATA 125
SCALARS m double
LOOKUP_TABLE default
1
1
1
1
1
1
1
1
1
1
1
1
1
1
1
1
1
1
1
1
1
1
1
1
1
1
1
1
1
1
1
1
1
1
1
1
1
1
1
1
1
1
1
1
1
1
1
1
1
1
1
1
1
1
1
1
1
1
1
1
1
1
1
1
1
1
1
1
1
1
1
1
1
1
1
1
1
1
1
1
1
1
1
1
1
1
1
1
1
1
1
1
1
1
1
1
1
1
1
1
1
1
1
1
1
1
1
1
1
1
1
1
1
1
1
1
1
1
1
1
1
1
1
1
1
SCALARS r double
LOOKUP_TABLE default
0.1
0.1
0.1
0.1
0.1
0.1
0.1
0.1
0.1
0.1
0.1
0.1
0.1
0.1
0.1
0.1
0.1
0.1
0.1
0.1
0.1
0.1
0.1
0.1
0.1
0.1
0.1
0.1
0.1
0.1
0.1
0.1
0.1
0.1
0.1
0.1
0.1
0.1
0.1
0.1
0.1
0.1
0.1
0.1
0.1
0.1
0.1
0.1
0.1
0.1
0.1
0.1
0.1
0.1
0.1
0.1
0.1
0.1
0.1
0.1
0.1
0.1
0.1
0.1
0.1
0.1
0.1
0.1
0.1
0.1
0.1
0.1
0.1
0.1
0.1
0.1
0.1
0.1
0.1
0.1
0.1
0.1
0.1
0.1
0.1
0.1
0.1
0.1
0.1
0.1
0.1
0.1
0.1
0.1
0.1
0.1
0.1
0.1
0.1
0.1
0.1
0.1
0.1
0.1
0.1
0.1
0.1
0.1
0.1
0.1
0.1
0.1
0.1
0.1
0.1
0.1
0.1
0.1
0.1
0.1
0.1
0.1
0.1
0.1
0.1
VECTORS v double
5.4403361e-19 -0.21168432 5.4403361e-19
5.4403361e-19 -0.21168432 7.6164705e-19
5.4403361e-19 -0.21168432 9.7926049e-19
5.4403361e-19 -0.21168432 1.1968739e-18
5.4403361e-19 -0.21168432 1.4144874e-18
8.3573106e-20 -0.057292266 8.4400562e-20
8.3573106e-20 -0.057292266 1.1749882e-19
8.3573106e-20 -0.057292266 1.5059708e-19
8.3573106e-20 -0.057292266 1.8369534e-19
8.3573106e-20 -0.057292266 2.167936e-19
4.5757183e-19 -0.087309042 4.6654382e-19
4.5757183e-19 -0.087309042 6.4598376e-19
4.5757183e-19 -0.087309042 8.2542369e-19
4.5757183e-19 -0.087309042 1.0048636e-18
4.5757183e-19 -0.087309042 1.1843036e-18
-1.4884049e-19 0.056268142 -1.5317565e-19
-1.4884049e-19 0.056268142 -2.1097778e-19
-1.4884049e-19 0.056268142 -2.6877991e-19
-1.4884049e-19 0.056268142 -3.2658204e-19
-1.4884049e-19 0.056268142 -3.8438417e-19
-3.8398299e-20 -0.13768934 -3.9875157e-20
-3.8398299e-20 -0.13768934 -5.4643734e-20
-3.8398299e-20 -0.13768934 -6.9412311e-20
-3.8398299e-20 -0.13768934 -8.4180887e-20
-3.8398299e-20 -0.13768934 -9.8949464e-20
7.6164705e-19 -0.21168432 5.4403361e-19
7.6164705e-19 -0.21168432 7.6164705e-19
7.6164705e-19 -0.21168432 9.7926049e-19
7.6164705e-19 -0.21168432 1.1968739e-18
7.6164705e-19 -0.21168432 1.4144874e-18
1.1667137e-19 -0.057292266 8.4400562e-20
1.1667137e-19 -0.057292266 1.1749882e-19
1.1667137e-19 -0.057292266 1.5059708e-19
1.1667137e-19 -0.057292266 1.8369534e-19
1.1667137e-19 -0.057292266 2.167936e-19
6.3701176e-19 -0.087309042 4.6654382e-19
6.3701176e-19 -0.087309042 6.4598376e-19
6.3701176e-19 -0.087309042 8.2542369e-19
6.3701176e-19 -0.087309042 1.0048636e-18
6.3701176e-19 -0.087309042 1.1843036e-18
-2.0664262e-19 0.056268142 -1.5317565e-19
-2.0664262e-19 0.056268142 -2.1097778e-19
-2.0664262e-19 0.056268142 -2.6877991e-19
-2.0664262e-19 0.056268142 -3.2658204e-19
-2.0664262e-19 0.056268142 -3.8438417e-19
-5.3166876e-20 -0.13768934 -3.9875157e-20
-5.3166876e-20 -0.13768934 -5.4643734e-20
-5.3166876e-20 -0.13768934 -6.9412311e-20
-5.3166876e-20 -0.13768934 -8.4180887e-20
-5.3166876e-20 -0.13768934 -9.8949464e-20
9.7926049e-19 -0.21168432 5.4403361e-19
9.7926049e-19 -0.21168432 7.6164705e-19
9.7926049e-19 -0.21168432 9.7926049e-19
9.7926049e-19 -0.21168432 1.1968739e-18
9.7926049e-19 -0.21168432 1.4144874e-18
1.4976963e-19 -0.057292266 8.4400562e-20
1.4976963e-19 -0.057292266 1.1749882e-19
1.4976963e-19 -0.057292266 1.5059708e-19
1.4976963e-19 -0.057292266 1.8369534e-19
1.4976963e-19 -0.057292266 2.167936e-19
8.1645169e-19 -0.087309042 4.6654382e-19
8.1645169e-19 -0.087309042 6.4598376e-19
8.1645169e-19 -0.087309042 8.2542369e-19
8.1645169e-19 -0.087309042 1.0048636e-18
8.1645169e-19 -0.087309042 1.1843036e-18
-2.6444475e-19 0.056268142 -1.5317565e-19
-2.6444475e-19 0.056268142 -2.1097778e-19
-2.6444475e-19 0.056268142 -2.6877991e-19
-2.6444475e-19 0.056268142 -3.2658204e-19
-2.6444475e-19 0.056268142 -3.8438417e-19
-6.7935453e-20 -0.13768934 -3.9875157e-20
-6.7935453e-20 -0.13768934 -5.4643734e-20
-6.7935453e-20 -0.13768934 -6.9412311e-20
-6.7935453e-20 -0.13768934 -8.4180887e-20
-6.7935453e-20 -0.13768934 -9.8949464e-20
1.1968739e-18 -0.21168432 5.4403361e-19
1.1968739e-18 -0.21168432 7.6164705e-19
1.1968739e-18 -0.21168432 9.7926049e-19
1.1968739e-18 -0.21168432 1.1968739e-18
1.1968739e-18 -0.21168432 1.4144874e-18
1.8286788e-19 -0.057292266 8.4400562e-20
1.8286788e-19 -0.057292266 1.1749882e-19
1.8286788e-19 -0.057292266 1.5059708e-19
1.8286788e-19 -0.057292266 1.8369534e-19
1.8286788e-19 -0.057292266 2.167936e-19
9.9589163e-19 -0.087309042 4.6654382e-19
9.9589163e-19 -0.087309042 6.4598376e-19
9.9589163e-19 -0.087309042 8.2542369e-19
9.9589163e-19 -0.087309042 1.0048636e-18
9.9589163e-19 -0.087309042 1.1843036e-18
-3.2224688e-19 0.056268142 -1.5317565e-19
-3.2224688e-19 0.056268142 -2.1097778e-19
-3.2224688e-19 0.056268142 -2.6877991e-19
-3.2224688e-19 0.056268142 -3.2658204e-19
-3.2224688e-19 0.056268142 -3.8438417e-19
-8.270403e-20 -0.13768934 -3.9875157e-20
-8.270403e-20 -0.13768934 -5.4643734e-20
-8.270403e-20 -0.13768934 -6.9412311e-20
-8.270403e-20 -0.13768934 -8.4180887e-20
-8.270403e-20 -0.13768934 -9.8949464e-20
1.4144874e-18 -0.21168432 5.4403361e-19
1.4144874e-18 -0.21168432 7.6164705e-19
1.4144874e-18 -0.21168432 9.7926049e-19
1.4144874e-18 -0.21168432 1.1968739e-18
1.4144874e-18 -0.21168432 1.4144874e-18
2.1596614e-19 -0.057292266 8.4400562e-20
2.1596614e-19 -0.057292266 1.1749882e-19
2.1596614e-19 -0.057292266 1.5059708e-19
2.1596614e-19 -0.057292266 1.8369534e-19
2.1596614e-19 -0.057292266 2.167936e-19
1.1753316e-18 -0.087309042 4.6654382e-19
1.1753316e-18 -0.087309042 6.4598376e-19
1.1753316e-18 -0.087309042 8.2542369e-19
1.1753316e-18 -0.087309042 1.0048636e-18
1.1753316e-18 -0.087309042 1.1843036e-18
-3.8004901e-19 0.056268142 -1.5317565e-19
-3.8004901e-19 0.056268142 -2.1097778e-19
-3.8004901e-19 0.056268142 -2.6877991e-19
-3.8004901e-19 0.056268142 -3.2658204e-19
-3.8004901e-19 0.056268142 -3.8438417e-19
-9.7472606e-20 -0.13768934 -3.9875157e-20
-9.7472606e-20 -0.13768934 -5.4643734e-20
-9.7472606e-20 -0.13768934 -6.9412311e-20
-9.7472606e-20 -0.13768934 -8.4180887e-20
-9.7472606e-20 -0.13768934 -9.8949464e-20
VECTORS q double
1 -4.3536119e-13 2.2028243e-28
1 -4.3536119e-13 3.0839686e-28
1 -4.3536119e-13 3.9650552e-28
1 -4.3536119e-13 4.8462395e-28
1 -4.3536119e-13 5.7275458e-28
1 -2.8960676e-14 2.3971626e-30
1 -2.8960676e-14 3.3387368e-30
1 -2.8960676e-14 4.2766358e-30
1 -2.8960676e-14 5.2218494e-30
1 -2.8960676e-14 6.1589654e-30
1 -3.5681362e-13 1.4759391e-28
1 -3.5681362e-13 2.0435932e-28
1 -3.5681362e-13 2.6108319e-28
1 -3.5681362e-13 3.1786902e-28
1 -3.5681362e-13 3.7471055e-28
1 1.8303719e-13 2.8140359e-29
1 1.8303719e-13 3.8733694e-29
1 1.8303719e-13 4.93839e-29
1 1.8303719e-13 6.0009725e-29
1 1.8303719e-13 7.0596882e-29
1 5.2512182e-14 1.9815659e-30
1 5.2512182e-14 2.7004158e-30
1 5.2512182e-14 3.4427923e-30
1 5.2512182e-14 4.1668566e-30
1 5.2512182e-14 4.8945857e-30
1 -6.0950567e-13 3.083943e-28
1 -6.0950567e-13 4.3175524e-28
1 -6.0950567e-13 5.5512343e-28
1 -6.0950567e-13 6.7847047e-28
1 -6.0950567e-13 8.018426e-28
1 -4.043025e-14 3.3450291e-30
1 -4.043025e-14 4.6595908e-30
1 -4.043025e-14 5.9682294e-30
1 -4.043025e-14 7.2877718e-30
1 -4.043025e-14 8.5936457e-30
1 -4.9674053e-13 2.0546515e-28
1 -4.9674053e-13 2.8449183e-28
1 -4.9674053e-13 3.6346533e-28
1 -4.9674053e-13 4.425107e-28
1 -4.9674053e-13 5.2162701e-28
1 2.5411959e-13 3.9073853e-29
1 2.5411959e-13 5.3784342e-29
1 2.5411959e-13 6.8574667e-29
1 2.5411959e-13 8.3329667e-29
1 2.5411959e-13 9.8030777e-29
1 7.2709175e-14 2.7423501e-30
1 7.2709175e-14 3.7380023e-30
1 7.2709175e-14 4.7680675e-30
1 7.2709175e-14 5.7702088e-30
1 7.2709175e-14 6.7754779e-30
1 -7.8365015e-13 3.9651292e-28
1 -7.8365015e-13 5.5509406e-28
1 -7.8365015e-13 7.1371713e-28
1 -7.8365015e-13 8.7232898e-28
1 -7.8365015e-13 1.0309503e-27
1 -5.1899825e-14 4.2957092e-30
1 -5.1899825e-14 5.9839155e-30
1 -5.1899825e-14 7.6642274e-30
1 -5.1899825e-14 9.357607e-30
1 -5.1899825e-14 1.1037339e-29
1 -6.3666744e-13 2.6339782e-28
1 -6.3666744e-13 3.6470218e-28
1 -6.3666744e-13 4.6592937e-28
1 -6.3666744e-13 5.6728128e-28
1 -6.3666744e-13 6.6871401e-28
1 3.25202e-13 4.9994283e-29
1 3.25202e-13 6.8815003e-29
1 3.25202e-13 8.7736145e-29
1 3.25202e-13 1.0661691e-28
1 3.25202e-13 1.2542289e-28
1 9.2906169e-14 3.5088597e-30
1 9.2906169e-14 4.7819503e-30
1 9.2906169e-14 6.0980216e-30
1 9.2906169e-14 7.3787425e-30
1 9.2906169e-14 8.667363e-30
1 -9.5779463e-13 4.8461806e-28
1 -9.5779463e-13 6.7847183e-28
1 -9.5779463e-13 8.723096e-28
1 -9.5779463e-13 1.066167e-27
1 -9.5779463e-13 1.2600351e-27
1 -6.3369399e-14 5.2427013e-30
1 -6.3369399e-14 7.3023653e-30
1 -6.3369399e-14 9.3523228e-30
1 -6.3369399e-14 1.1420492e-29
1 -6.3369399e-14 1.3469017e-29
1 -7.7659435e-13 3.213105e-28
1 -7.7659435e-13 4.4488109e-28
1 -7.7659435e-13 5.6837174e-28
1 -7.7659435e-13 6.9201371e-28
1 -7.7659435e-13 8.1573727e-28
1 3.962844e-13 6.0934391e-29
1 3.962844e-13 8.3871288e-29
1 3.962844e-13 1.0693389e-28
1 3.962844e-13 1.2994438e-28
1 3.962844e-13 1.5286607e-28
1 1.1310316e-13 4.2694702e-30
1 1.1310316e-13 5.8188396e-30
1 1.1310316e-13 7.421527e-30
1 1.1310316e-13 8.9794556e-30
1 1.1310316e-13 1.0548809e-29
1 -1.1319391e-12 5.7271245e-28
1 -1.1319391e-12 8.0180995e-28
1 -1.1319391e-12 1.030879e-27
1 -1.1319391e-12 1.2599901e-27
1 -1.1319391e-12 1.4891348e-27
1 -7.4838974e-14 6.1960354e-30
1 -7.4838974e-14 8.6299415e-30
1 -7.4838974e-14 1.1052788e-29
1 -7.4838974e-14 1.3494979e-29
1 -7.4838974e-14 1.591629e-29
1 -9.1652126e-13 3.7914042e-28
1 -9.1652126e-13 5.2496417e-28
1 -9.1652126e-13 6.706696e-28
1 -9.1652126e-13 8.1657656e-28
1 -9.1652126e-13 9.6256159e-28
1 4.673668e-13 7.1861934e-29
1 4.673668e-13 9.8928236e-29
1 4.673668e-13 1.2611804e-28
1 4.673668e-13 1.532548e-28
1 4.673668e-13 1.8029393e-28
1 1.3330015e-13 5.0439212e-30
1 1.3330015e-13 6.8756105e-30
1 1.3330015e-13 8.7649681e-30
1 1.3330015e-13 1.0607209e-29
1 1.3330015e-13 1.2460337e-29
