# vtk DataFile Version 4.0
hesp visualization file
ASCII
DATASET UNSTRUCTURED_GRID
POINTS 125 double
0.5 0.38696264 0.5
0.5 0.38696264 0.7
0.5 0.38696264 0.9
0.5 0.38696264 1.1
0.5 0.38696264 1.3
0.505 0.21284893 0.51
0.505 0.21284893 0.71
0.505 0.21284893 0.91
0.505 0.21284893 1.11
0.505 0.21284893 1.31
0.51 0.21299159 0.52
0.51 0.21299159 0.72
0.51 0.21299159 0.92
0.51 0.21299159 1.12
0.51 0.21299159 1.32
0.515 0.2423029 0.53
0.515 0.2423029 0.73
0.515 0.2423029 0.93
0.515 0.2423029 1.13
0.515 0.2423029 1.33
0.52 0.21776961 0.54
0.52 0.21776961 0.74
0.52 0.21776961 0.94
0.52 0.21776961 1.14
0.52 0.21776961 1.34
0.7 0.38696264 0.5
0.7 0.38696264 0.7
0.7 0.38696264 0.9
0.7 0.38696264 1.1
0.7 0.38696264 1.3
0.705 0.21284893 0.51
0.705 0.21284893 0.71
0.705 0.21284893 0.91
0.705 0.21284893 1.11
0.705 0.21284893 1.31
0.71 0.21299159 0.52
0.71 0.21299159 0.72
0.71 0.21299159 0.92
0.71 0.21299159 1.12
0.71 0.21299159 1.32
0.715 0.2423029 0.53
0.715 0.2423029 0.73
0.715 0.2423029 0.93
0.715 0.2423029 1.13
0.715 0.2423029 1.33
0.72 0.21776961 0.54
0.72 0.21776961 0.74
0.72 0.21776961 0.94
0.72 0.21776961 1.14
0.72 0.21776961 1.34
0.9 0.38696264 0.5
0.9 0.38696264 0.7
0.9 0.38696264 0.9
0.9 0.38696264 1.1
0.9 0.38696264 1.3
0.905 0.21284893 0.51
0.905 0.21284893 0.71
0.905 0.21284893 0.91
0.905 0.21284893 1.11
0.905 0.21284893 1.31
0.91 0.21299159 0.52
0.91 0.21299159 0.72
0.91 0.21299159 0.92
0.91 0.21299159 1.12
0.91 0.21299159 1.32
0.915 0.2423029 0.53
0.915 0.2423029 0.73
0.915 0.2423029 0.93
0.915 0.2423029 1.13
0.915 0.2423029 1.33
0.92 0.21776961 0.54
0.92 0.21776961 0.74
0.92 0.21776961 0.94
0.92 0.21776961 1.14
0.92 0.21776961 1.34
1.1 0.38696264 0.5
1.1 0.38696264 0.7
1.1 0.38696264 0.9
1.1 0.38696264 1.1
1.1 0.38696264 1.3
1.105 0.21284893 0.51
1.105 0.21284893 0.71
1.105 0.21284893 0.91
1.105 0.21284893 1.11
1.105 0.21284893 1.31
1.11 0.21299159 0.52
1.11 0.21299159 0.72
1.11 0.21299159 0.92
1.11 0.21299159 1.12
1.11 0.21299159 1.32
1.115 0.2423029 0.53
1.115 0.2423029 0.73
1.115 0.2423029 0.93
1.115 0.2423029 1.13
1.115 0.2423029 1.33
1.12 0.21776961 0.54
1.12 0.21776961 0.74
1.12 0.21776961 0.94
1.12 0.21776961 1.14
1.12 0.21776961 1.34
1.3 0.38696264 0.5
1.3 0.38696264 0.7
1.3 0.38696264 0.9
1.3 0.38696264 1.1
1.3 0.38696264 1.3
1.305 0.21284893 0.51
1.305 0.21284893 0.71
1.305 0.21284893 0.91
1.305 0.21284893 1.11
1.305 0.21284893 1.31
1.31 0.21299159 0.52
1.31 0.21299159 0.72
1.31 0.21299159 0.92
1.31 0.21299159 1.12
1.31 0.21299159 1.32
1.315 0.2423029 0.53
1.315 0.2423029 0.73
1.315 0.2423029 0.93
1.315 0.2423029 1.13
1.315 0.2423029 1.33
1.32 0.21776961 0.54
1.32 0.21776961 0.74
1.32 0.21776961 0.94
1.32 0.21776961 1.14
1.32 0.21776961 1.34
CELLS 0 0
CELL_TYPES 0
POINT_DATA 125
SCALARS m double
LOOKUP_TABLE default
1
1
1
1
1
1
1
1
1
1
1
1
1
1
1
1
1
1
1
1
1
1
1
1
1
1
1
1
1
1
1
1
1
1
1
1
1
1
1
1
1
1
1
1
1
1
1
1
1
1
1
1
1
1
1
1
1
1
1
1
1
1
1
1
1
1
1
1
1
1
1
1
1
1
1
1
1
1
1
1
1
1
1
1
1
1
1
1
1
1
1
1
1
1
1
1
1
1
1
1
1
1
1
1
1
1
1
1
1
1
1
1
1
1
1
1
1
1
1
1
1
1
1
1
1
SCALARS r double
LOOKUP_TABLE default
0.1
0.1
0.1
0.1
0.1
0.1
0.1
0.1
0.1
0.1
0.1
0.1
0.1
0.1
0.1
0.1
0.1
0.1
0.1
0.1
0.1
0.1
0.1
0.1
0.1
0.1
0.1
0.1
0.1
0.1
0.1
0.1
0.1
0.1
0.1
0.1
0.1
0.1
0.1
0.1
0.1
0.1
0.1
0.1
0.1
0.1
0.1
0.1
0.1
0.1
0.1
0.1
0.1
0.1
0.1
0.1
0.1
0.1
0.1
0.1
0.1
0.1
0.1
0.1
0.1
0.1
0.1
0.1
0.1
0.1
0.1
0.1
0.1
0.1
0.1
0.1
0.1
0.1
0.1
0.1
0.1
0.1
0.1
0.1
0.1
0.1
0.1
0.1
0.1
0.1
0.1
0.1
0.1
0.1
0.1
0.1
0.1
0.1
0.1
0.1
0.1
0.1
0.1
0.1
0.1
0.1
0.1
0.1
0.1
0.1
0.1
0.1
0.1
0.1
0.1
0.1
0.1
0.1
0.1
0.1
0.1
0.1
0.1
0.1
0.1
VECTORS v double
1.1197909e-19 0.25360555 1.1197909e-19
1.1197909e-19 0.25360555 1.5677072e-19
1.1197909e-19 0.25360555 2.0156236e-19
1.1197909e-19 0.25360555 2.46354e-19
1.1197909e-19 0.25360555 2.9114563e-19
0 0.22767759 0
0 0.22767759 0
0 0.22767759 0
0 0.22767759 0
0 0.22767759 0
7.7251613e-20 -0.038147783 7.876635e-20
7.7251613e-20 -0.038147783 1.090611e-19
7.7251613e-20 -0.038147783 1.3935585e-19
7.7251613e-20 -0.038147783 1.696506e-19
7.7251613e-20 -0.038147783 1.9994535e-19
-3.734874e-20 -0.44678081 -3.8436568e-20
-3.734874e-20 -0.44678081 -5.2940933e-20
-3.734874e-20 -0.44678081 -6.7445298e-20
-3.734874e-20 -0.44678081 -8.1949664e-20
-3.734874e-20 -0.44678081 -9.6454029e-20
-1.1704262e-20 0.10702028 -1.2154426e-20
-1.1704262e-20 0.10702028 -1.6656066e-20
-1.1704262e-20 0.10702028 -2.1157705e-20
-1.1704262e-20 0.10702028 -2.5659345e-20
-1.1704262e-20 0.10702028 -3.0160984e-20
1.5677072e-19 0.25360555 1.1197909e-19
1.5677072e-19 0.25360555 1.5677072e-19
1.5677072e-19 0.25360555 2.0156236e-19
1.5677072e-19 0.25360555 2.46354e-19
1.5677072e-19 0.25360555 2.9114563e-19
0 0.22767759 0
0 0.22767759 0
0 0.22767759 0
0 0.22767759 0
0 0.22767759 0
1.0754636e-19 -0.038147783 7.876635e-20
1.0754636e-19 -0.038147783 1.090611e-19
1.0754636e-19 -0.038147783 1.3935585e-19
1.0754636e-19 -0.038147783 1.696506e-19
1.0754636e-19 -0.038147783 1.9994535e-19
-5.1853106e-20 -0.44678081 -3.8436568e-20
-5.1853106e-20 -0.44678081 -5.2940933e-20
-5.1853106e-20 -0.44678081 -6.7445298e-20
-5.1853106e-20 -0.44678081 -8.1949664e-20
-5.1853106e-20 -0.44678081 -9.6454029e-20
-1.6205902e-20 0.10702028 -1.2154426e-20
-1.6205902e-20 0.10702028 -1.6656066e-20
-1.6205902e-20 0.10702028 -2.1157705e-20
-1.6205902e-20 0.10702028 -2.5659345e-20
-1.6205902e-20 0.10702028 -3.0160984e-20
2.0156236e-19 0.25360555 1.1197909e-19
2.0156236e-19 0.25360555 1.5677072e-19
2.0156236e-19 0.25360555 2.0156236e-19
2.0156236e-19 0.25360555 2.46354e-19
2.0156236e-19 0.25360555 2.9114563e-19
0 0.22767759 0
0 0.22767759 0
0 0.22767759 0
0 0.22767759 0
0 0.22767759 0
1.3784111e-19 -0.038147783 7.876635e-20
1.3784111e-19 -0.038147783 1.090611e-19
1.3784111e-19 -0.038147783 1.3935585e-19
1.3784111e-19 -0.038147783 1.696506e-19
1.3784111e-19 -0.038147783 1.9994535e-19
-6.6357471e-20 -0.44678081 -3.8436568e-20
-6.6357471e-20 -0.44678081 -5.2940933e-20
-6.6357471e-20 -0.44678081 -6.7445298e-20
-6.6357471e-20 -0.44678081 -8.1949664e-20
-6.6357471e-20 -0.44678081 -9.6454029e-20
-2.0707541e-20 0.10702028 -1.2154426e-20
-2.0707541e-20 0.10702028 -1.6656066e-20
-2.0707541e-20 0.10702028 -2.1157705e-20
-2.0707541e-20 0.10702028 -2.5659345e-20
-2.0707541e-20 0.10702028 -3.0160984e-20
2.46354e-19 0.25360555 1.1197909e-19
2.46354e-19 0.25360555 1.5677072e-19
2.46354e-19 0.25360555 2.0156236e-19
2.46354e-19 0.25360555 2.46354e-19
2.46354e-19 0.25360555 2.9114563e-19
0 0.22767759 0
0 0.22767759 0
0 0.22767759 0
0 0.22767759 0
0 0.22767759 0
1.6813586e-19 -0.038147783 7.876635e-20
1.6813586e-19 -0.038147783 1.090611e-19
1.6813586e-19 -0.038147783 1.3935585e-19
1.6813586e-19 -0.038147783 1.696506e-19
1.6813586e-19 -0.038147783 1.9994535e-19
-8.0861836e-20 -0.44678081 -3.8436568e-20
-8.0861836e-20 -0.44678081 -5.2940933e-20
-8.0861836e-20 -0.44678081 -6.7445298e-20
-8.0861836e-20 -0.44678081 -8.1949664e-20
-8.0861836e-20 -0.44678081 -9.6454029e-20
-2.5209181e-20 0.10702028 -1.2154426e-20
-2.5209181e-20 0.10702028 -1.6656066e-20
-2.5209181e-20 0.10702028 -2.1157705e-20
-2.5209181e-20 0.10702028 -2.5659345e-20
-2.5209181e-20 0.10702028 -3.0160984e-20
2.9114563e-19 0.25360555 1.1197909e-19
2.9114563e-19 0.25360555 1.5677072e-19
2.9114563e-19 0.25360555 2.0156236e-19
2.9114563e-19 0.25360555 2.46354e-19
2.9114563e-19 0.25360555 2.9114563e-19
0 0.22767759 0
0 0.22767759 0
0 0.22767759 0
0 0.22767759 0
0 0.22767759 0
1.9843061e-19 -0.038147783 7.876635e-20
1.9843061e-19 -0.038147783 1.090611e-19
1.9843061e-19 -0.038147783 1.3935585e-19
1.9843061e-19 -0.038147783 1.696506e-19
1.9843061e-19 -0.038147783 1.9994535e-19
-9.5366201e-20 -0.44678081 -3.8436568e-20
-9.5366201e-20 -0.44678081 -5.2940933e-20
-9.5366201e-20 -0.44678081 -6.7445298e-20
-9.5366201e-20 -0.44678081 -8.1949664e-20
-9.5366201e-20 -0.44678081 -9.6454029e-20
-2.971082e-20 0.10702028 -1.2154426e-20
-2.971082e-20 0.10702028 -1.6656066e-20
-2.971082e-20 0.10702028 -2.1157705e-20
-2.971082e-20 0.10702028 -2.5659345e-20
-2.971082e-20 0.10702028 -3.0160984e-20
VECTORS q double
1 -1.4686975e-14 1.0106456e-30
1 -1.4686975e-14 1.4143015e-30
1 -1.4686975e-14 1.8178957e-30
1 -1.4686975e-14 2.2229519e-30
1 -1.4686975e-14 2.6255021e-30
1 0 0
1 0 0
1 0 0
1 0 0
1 0 0
1 -1.773281e-14 1.2750074e-30
1 -1.773281e-14 1.7659229e-30
1 -1.773281e-14 2.2546624e-30
1 -1.773281e-14 2.7468288e-30
1 -1.773281e-14 3.2384866e-30
1 2.0869711e-14 1.1374663e-30
1 2.0869711e-14 1.5650416e-30
1 2.0869711e-14 1.996424e-30
1 2.0869711e-14 2.4252407e-30
1 2.0869711e-14 2.8520246e-30
1 3.2399179e-15 5.2021441e-32
1 3.2399179e-15 7.1037741e-32
1 3.2399179e-15 9.0274922e-32
1 3.2399179e-15 1.0955182e-31
1 3.2399179e-15 1.2851428e-31
1 -2.0561765e-14 1.4157248e-30
1 -2.0561765e-14 1.9813256e-30
1 -2.0561765e-14 2.5454681e-30
1 -2.0561765e-14 3.1131138e-30
1 -2.0561765e-14 3.6769825e-30
1 0 0
1 0 0
1 0 0
1 0 0
1 0 0
1 -2.4686853e-14 1.7736687e-30
1 -2.4686853e-14 2.4566171e-30
1 -2.4686853e-14 3.136786e-30
1 -2.4686853e-14 3.8222963e-30
1 -2.4686853e-14 4.5053064e-30
1 2.8974454e-14 1.5793072e-30
1 2.8974454e-14 2.1730496e-30
1 2.8974454e-14 2.7716078e-30
1 2.8974454e-14 3.3679387e-30
1 2.8974454e-14 3.9609034e-30
1 4.4860402e-15 7.203528e-32
1 4.4860402e-15 9.8360177e-32
1 4.4860402e-15 1.2513644e-31
1 4.4860402e-15 1.51814e-31
1 4.4860402e-15 1.7805358e-31
1 -2.6436555e-14 1.8203056e-30
1 -2.6436555e-14 2.5474877e-30
1 -2.6436555e-14 3.2746881e-30
1 -2.6436555e-14 4.0038862e-30
1 -2.6436555e-14 4.7281404e-30
1 0 0
1 0 0
1 0 0
1 0 0
1 0 0
1 -3.1640896e-14 2.2771066e-30
1 -3.1640896e-14 3.1540473e-30
1 -3.1640896e-14 4.0264509e-30
1 -3.1640896e-14 4.9071998e-30
1 -3.1640896e-14 5.7845821e-30
1 3.7079196e-14 2.020311e-30
1 3.7079196e-14 2.7799632e-30
1 3.7079196e-14 3.5457431e-30
1 3.7079196e-14 4.3092684e-30
1 3.7079196e-14 5.066948e-30
1 5.7321625e-15 9.2029739e-32
1 5.7321625e-15 1.2565632e-31
1 5.7321625e-15 1.5977041e-31
1 5.7321625e-15 1.9377255e-31
1 5.7321625e-15 2.2739657e-31
1 -3.2311345e-14 2.2235888e-30
1 -3.2311345e-14 3.1123461e-30
1 -3.2311345e-14 4.0002438e-30
1 -3.2311345e-14 4.8921778e-30
1 -3.2311345e-14 5.775671e-30
1 0 0
1 0 0
1 0 0
1 0 0
1 0 0
1 -3.8594939e-14 2.7756956e-30
1 -3.8594939e-14 3.8449286e-30
1 -3.8594939e-14 4.9093191e-30
1 -3.8594939e-14 5.9810927e-30
1 -3.8594939e-14 7.0523261e-30
1 4.5183938e-14 2.4631483e-30
1 4.5183938e-14 3.3888134e-30
1 4.5183938e-14 4.3229774e-30
1 4.5183938e-14 5.2524929e-30
1 4.5183938e-14 6.1766779e-30
1 6.9782848e-15 1.1206825e-31
1 6.9782848e-15 1.5291903e-31
1 6.9782848e-15 1.9460037e-31
1 6.9782848e-15 2.3602931e-31
1 6.9782848e-15 2.7693854e-31
1 -3.8186135e-14 2.6297128e-30
1 -3.8186135e-14 3.6806139e-30
1 -3.8186135e-14 4.7296764e-30
1 -3.8186135e-14 5.785095e-30
1 -3.8186135e-14 6.8345227e-30
1 0 0
1 0 0
1 0 0
1 0 0
1 0 0
1 -4.5548982e-14 3.2763031e-30
1 -4.5548982e-14 4.5394624e-30
1 -4.5548982e-14 5.794868e-30
1 -4.5548982e-14 7.060305e-30
1 -4.5548982e-14 8.3241768e-30
1 5.3288681e-14 2.9035497e-30
1 5.3288681e-14 3.9961767e-30
1 5.3288681e-14 5.0962849e-30
1 5.3288681e-14 6.1926317e-30
1 5.3288681e-14 7.2824913e-30
1 8.2244071e-15 1.3218405e-31
1 8.2244071e-15 1.8048787e-31
1 8.2244071e-15 2.2934289e-31
1 8.2244071e-15 2.7843239e-31
1 8.2244071e-15 3.2653174e-31
