# vtk DataFile Version 4.0
hesp visualization file
ASCII
DATASET UNSTRUCTURED_GRID
POINTS 125 double
0.5 0.24468106 0.5
0.5 0.24468106 0.7
0.5 0.24468106 0.9
0.5 0.24468106 1.1
0.5 0.24468106 1.3
0.505 0.36875413 0.51
0.505 0.36875413 0.71
0.505 0.36875413 0.91
0.505 0.36875413 1.11
0.505 0.36875413 1.31
0.51 0.27885902 0.52
0.51 0.27885902 0.72
0.51 0.27885902 0.92
0.51 0.27885902 1.12
0.51 0.27885902 1.32
0.515 0.19909456 0.53
0.515 0.19909456 0.73
0.515 0.19909456 0.93
0.515 0.19909456 1.13
0.515 0.19909456 1.33
0.52 0.20367241 0.54
0.52 0.20367241 0.74
0.52 0.20367241 0.94
0.52 0.20367241 1.14
0.52 0.20367241 1.34
0.7 0.24468106 0.5
0.7 0.24468106 0.7
0.7 0.24468106 0.9
0.7 0.24468106 1.1
0.7 0.24468106 1.3
0.705 0.36875413 0.51
0.705 0.36875413 0.71
0.705 0.36875413 0.91
0.705 0.36875413 1.11
0.705 0.36875413 1.31
0.71 0.27885902 0.52
0.71 0.27885902 0.72
0.71 0.27885902 0.92
0.71 0.27885902 1.12
0.71 0.27885902 1.32
0.715 0.19909456 0.53
0.715 0.19909456 0.73
0.715 0.19909456 0.93
0.715 0.19909456 1.13
0.715 0.19909456 1.33
0.72 0.20367241 0.54
0.72 0.20367241 0.74
0.72 0.20367241 0.94
0.72 0.20367241 1.14
0.72 0.20367241 1.34
0.9 0.24468106 0.5
0.9 0.24468106 0.7
0.9 0.24468106 0.9
0.9 0.24468106 1.1
0.9 0.24468106 1.3
0.905 0.36875413 0.51
0.905 0.36875413 0.71
0.905 0.36875413 0.91
0.905 0.36875413 1.11
0.905 0.36875413 1.31
0.91 0.27885902 0.52
0.91 0.27885902 0.72
0.91 0.27885902 0.92
0.91 0.27885902 1.12
0.91 0.27885902 1.32
0.915 0.19909456 0.53
0.915 0.19909456 0.73
0.915 0.19909456 0.93
0.915 0.19909456 1.13
0.915 0.19909456 1.33
0.92 0.20367241 0.54
0.92 0.20367241 0.74
0.92 0.20367241 0.94
0.92 0.20367241 1.14
0.92 0.20367241 1.34
1.1 0.24468106 0.5
1.1 0.24468106 0.7
1.1 0.24468106 0.9
1.1 0.24468106 1.1
1.1 0.24468106 1.3
1.105 0.36875413 0.51
1.105 0.36875413 0.71
1.105 0.36875413 0.91
1.105 0.36875413 1.11
1.105 0.36875413 1.31
1.11 0.27885902 0.52
1.11 0.27885902 0.72
1.11 0.27885902 0.92
1.11 0.27885902 1.12
1.11 0.27885902 1.32
1.115 0.19909456 0.53
1.115 0.19909456 0.73
1.115 0.19909456 0.93
1.115 0.19909456 1.13
1.115 0.19909456 1.33
1.12 0.20367241 0.54
1.12 0.20367241 0.74
1.12 0.20367241 0.94
1.12 0.20367241 1.14
1.12 0.20367241 1.34
1.3 0.24468106 0.5
1.3 0.24468106 0.7
1.3 0.24468106 0.9
1.3 0.24468106 1.1
1.3 0.24468106 1.3
1.305 0.36875413 0.51
1.305 0.36875413 0.71
1.305 0.36875413 0.91
1.305 0.36875413 1.11
1.305 0.36875413 1.31
1.31 0.27885902 0.52
1.31 0.27885902 0.72
1.31 0.27885902 0.92
1.31 0.27885902 1.12
1.31 0.27885902 1.32
1.315 0.19909456 0.53
1.315 0.19909456 0.73
1.315 0.19909456 0.93
1.315 0.19909456 1.13
1.315 0.19909456 1.33
1.32 0.20367241 0.54
1.32 0.20367241 0.74
1.32 0.20367241 0.94
1.32 0.20367241 1.14
1.32 0.20367241 1.34
CELLS 0 0
CELL_TYPES 0
POINT_DATA 125
SCALARS m double
LOOKUP_TABLE default
1
1
1
1
1
1
1
1
1
1
1
1
1
1
1
1
1
1
1
1
1
1
1
1
1
1
1
1
1
1
1
1
1
1
1
1
1
1
1
1
1
1
1
1
1
1
1
1
1
1
1
1
1
1
1
1
1
1
1
1
1
1
1
1
1
1
1
1
1
1
1
1
1
1
1
1
1
1
1
1
1
1
1
1
1
1
1
1
1
1
1
1
1
1
1
1
1
1
1
1
1
1
1
1
1
1
1
1
1
1
1
1
1
1
1
1
1
1
1
1
1
1
1
1
1
SCALARS r double
LOOKUP_TABLE default
0.1
0.1
0.1
0.1
0.1
0.1
0.1
0.1
0.1
0.1
0.1
0.1
0.1
0.1
0.1
0.1
0.1
0.1
0.1
0.1
0.1
0.1
0.1
0.1
0.1
0.1
0.1
0.1
0.1
0.1
0.1
0.1
0.1
0.1
0.1
0.1
0.1
0.1
0.1
0.1
0.1
0.1
0.1
0.1
0.1
0.1
0.1
0.1
0.1
0.1
0.1
0.1
0.1
0.1
0.1
0.1
0.1
0.1
0.1
0.1
0.1
0.1
0.1
0.1
0.1
0.1
0.1
0.1
0.1
0.1
0.1
0.1
0.1
0.1
0.1
0.1
0.1
0.1
0.1
0.1
0.1
0.1
0.1
0.1
0.1
0.1
0.1
0.1
0.1
0.1
0.1
0.1
0.1
0.1
0.1
0.1
0.1
0.1
0.1
0.1
0.1
0.1
0.1
0.1
0.1
0.1
0.1
0.1
0.1
0.1
0.1
0.1
0.1
0.1
0.1
0.1
0.1
0.1
0.1
0.1
0.1
0.1
0.1
0.1
0.1
VECTORS v double
1.1791808e-18 0.19258 1.1791808e-18
1.1791808e-18 0.19258 1.6508531e-18
1.1791808e-18 0.19258 2.1225254e-18
1.1791808e-18 0.19258 2.5941977e-18
1.1791808e-18 0.19258 3.06587e-18
4.3054265e-19 -0.10040091 4.3480545e-19
4.3054265e-19 -0.10040091 6.0531739e-19
4.3054265e-19 -0.10040091 7.7582934e-19
4.3054265e-19 -0.10040091 9.4634128e-19
4.3054265e-19 -0.10040091 1.1168532e-18
1.0685516e-18 -0.23066905 1.0895036e-18
1.0685516e-18 -0.23066905 1.5085434e-18
1.0685516e-18 -0.23066905 1.9275833e-18
1.0685516e-18 -0.23066905 2.3466231e-18
1.0685516e-18 -0.23066905 2.7656629e-18
-2.1356903e-19 0.25170218 -2.1978948e-19
-2.1356903e-19 0.25170218 -3.0272891e-19
-2.1356903e-19 0.25170218 -3.8566834e-19
-2.1356903e-19 0.25170218 -4.6860776e-19
-2.1356903e-19 0.25170218 -5.5154719e-19
-3.257079e-21 0.13221701 -3.3823513e-21
-3.257079e-21 0.13221701 -4.635074e-21
-3.257079e-21 0.13221701 -5.8877967e-21
-3.257079e-21 0.13221701 -7.1405194e-21
-3.257079e-21 0.13221701 -8.3932421e-21
1.6508531e-18 0.19258 1.1791808e-18
1.6508531e-18 0.19258 1.6508531e-18
1.6508531e-18 0.19258 2.1225254e-18
1.6508531e-18 0.19258 2.5941977e-18
1.6508531e-18 0.19258 3.06587e-18
6.010546e-19 -0.10040091 4.3480545e-19
6.010546e-19 -0.10040091 6.0531739e-19
6.010546e-19 -0.10040091 7.7582934e-19
6.010546e-19 -0.10040091 9.4634128e-19
6.010546e-19 -0.10040091 1.1168532e-18
1.4875914e-18 -0.23066905 1.0895036e-18
1.4875914e-18 -0.23066905 1.5085434e-18
1.4875914e-18 -0.23066905 1.9275833e-18
1.4875914e-18 -0.23066905 2.3466231e-18
1.4875914e-18 -0.23066905 2.7656629e-18
-2.9650845e-19 0.25170218 -2.1978948e-19
-2.9650845e-19 0.25170218 -3.0272891e-19
-2.9650845e-19 0.25170218 -3.8566834e-19
-2.9650845e-19 0.25170218 -4.6860776e-19
-2.9650845e-19 0.25170218 -5.5154719e-19
-4.5098017e-21 0.13221701 -3.3823513e-21
-4.5098017e-21 0.13221701 -4.635074e-21
-4.5098017e-21 0.13221701 -5.8877967e-21
-4.5098017e-21 0.13221701 -7.1405194e-21
-4.5098017e-21 0.13221701 -8.3932421e-21
2.1225254e-18 0.19258 1.1791808e-18
2.1225254e-18 0.19258 1.6508531e-18
2.1225254e-18 0.19258 2.1225254e-18
2.1225254e-18 0.19258 2.5941977e-18
2.1225254e-18 0.19258 3.06587e-18
7.7156654e-19 -0.10040091 4.3480545e-19
7.7156654e-19 -0.10040091 6.0531739e-19
7.7156654e-19 -0.10040091 7.7582934e-19
7.7156654e-19 -0.10040091 9.4634128e-19
7.7156654e-19 -0.10040091 1.1168532e-18
1.9066313e-18 -0.23066905 1.0895036e-18
1.9066313e-18 -0.23066905 1.5085434e-18
1.9066313e-18 -0.23066905 1.9275833e-18
1.9066313e-18 -0.23066905 2.3466231e-18
1.9066313e-18 -0.23066905 2.7656629e-18
-3.7944788e-19 0.25170218 -2.1978948e-19
-3.7944788e-19 0.25170218 -3.0272891e-19
-3.7944788e-19 0.25170218 -3.8566834e-19
-3.7944788e-19 0.25170218 -4.6860776e-19
-3.7944788e-19 0.25170218 -5.5154719e-19
-5.7625245e-21 0.13221701 -3.3823513e-21
-5.7625245e-21 0.13221701 -4.635074e-21
-5.7625245e-21 0.13221701 -5.8877967e-21
-5.7625245e-21 0.13221701 -7.1405194e-21
-5.7625245e-21 0.13221701 -8.3932421e-21
2.5941977e-18 0.19258 1.1791808e-18
2.5941977e-18 0.19258 1.6508531e-18
2.5941977e-18 0.19258 2.1225254e-18
2.5941977e-18 0.19258 2.5941977e-18
2.5941977e-18 0.19258 3.06587e-18
9.4207848e-19 -0.10040091 4.3480545e-19
9.4207848e-19 -0.10040091 6.0531739e-19
9.4207848e-19 -0.10040091 7.7582934e-19
9.4207848e-19 -0.10040091 9.4634128e-19
9.4207848e-19 -0.10040091 1.1168532e-18
2.3256711e-18 -0.23066905 1.0895036e-18
2.3256711e-18 -0.23066905 1.5085434e-18
2.3256711e-18 -0.23066905 1.9275833e-18
2.3256711e-18 -0.23066905 2.3466231e-18
2.3256711e-18 -0.23066905 2.7656629e-18
-4.6238731e-19 0.25170218 -2.1978948e-19
-4.6238731e-19 0.25170218 -3.0272891e-19
-4.6238731e-19 0.25170218 -3.8566834e-19
-4.6238731e-19 0.25170218 -4.6860776e-19
-4.6238731e-19 0.25170218 -5.5154719e-19
-7.0152472e-21 0.13221701 -3.3823513e-21
-7.0152472e-21 0.13221701 -4.635074e-21
-7.0152472e-21 0.13221701 -5.8877967e-21
-7.0152472e-21 0.13221701 -7.1405194e-21
-7.0152472e-21 0.13221701 -8.3932421e-21
3.06587e-18 0.19258 1.1791808e-18
3.06587e-18 0.19258 1.6508531e-18
3.06587e-18 0.19258 2.1225254e-18
3.06587e-18 0.19258 2.5941977e-18
3.06587e-18 0.19258 3.06587e-18
1.1125904e-18 -0.10040091 4.3480545e-19
1.1125904e-18 -0.10040091 6.0531739e-19
1.1125904e-18 -0.10040091 7.7582934e-19
1.1125904e-18 -0.10040091 9.4634128e-19
1.1125904e-18 -0.10040091 1.1168532e-18
2.7447109e-18 -0.23066905 1.0895036e-18
2.7447109e-18 -0.23066905 1.5085434e-18
2.7447109e-18 -0.23066905 1.9275833e-18
2.7447109e-18 -0.23066905 2.3466231e-18
2.7447109e-18 -0.23066905 2.7656629e-18
-5.4532673e-19 0.25170218 -2.1978948e-19
-5.4532673e-19 0.25170218 -3.0272891e-19
-5.4532673e-19 0.25170218 -3.8566834e-19
-5.4532673e-19 0.25170218 -4.6860776e-19
-5.4532673e-19 0.25170218 -5.5154719e-19
-8.2679699e-21 0.13221701 -3.3823513e-21
-8.2679699e-21 0.13221701 -4.635074e-21
-8.2679699e-21 0.13221701 -5.8877967e-21
-8.2679699e-21 0.13221701 -7.1405194e-21
-8.2679699e-21 0.13221701 -8.3932421e-21
VECTORS q double
1 -1.5183396e-12 1.6090609e-27
1 -1.5183396e-12 2.252668e-27
1 -1.5183396e-12 2.8962745e-27
1 -1.5183396e-12 3.5399245e-27
1 -1.5183396e-12 4.1836674e-27
1 -3.4945206e-13 1.416895e-28
1 -3.4945206e-13 1.9728317e-28
1 -3.4945206e-13 2.5280208e-28
1 -3.4945206e-13 3.0843264e-28
1 -3.4945206e-13 3.6399498e-28
1 -1.2787183e-12 1.2264618e-27
1 -1.2787183e-12 1.6981697e-27
1 -1.2787183e-12 2.1698206e-27
1 -1.2787183e-12 2.6416038e-27
1 -1.2787183e-12 3.1135338e-27
1 4.3819882e-13 9.3016732e-29
1 4.3819882e-13 1.2805182e-28
1 4.3819882e-13 1.6323701e-28
1 4.3819882e-13 1.9835593e-28
1 4.3819882e-13 2.3339002e-28
1 8.6171269e-14 3.4588951e-31
1 8.6171269e-14 4.2413734e-31
1 8.6171269e-14 5.8782494e-31
1 8.6171269e-14 6.7691332e-31
1 8.6171269e-14 7.9088196e-31
1 -2.1256755e-12 2.2526989e-27
1 -2.1256755e-12 3.1537573e-27
1 -2.1256755e-12 4.0550636e-27
1 -2.1256755e-12 4.9560631e-27
1 -2.1256755e-12 5.8572941e-27
1 -4.8784892e-13 1.9778195e-28
1 -4.8784892e-13 2.7539318e-28
1 -4.8784892e-13 3.5290306e-28
1 -4.8784892e-13 4.3053783e-28
1 -4.8784892e-13 5.0810476e-28
1 -1.7801765e-12 1.7075044e-27
1 -1.7801765e-12 2.3642751e-27
1 -1.7801765e-12 3.0208896e-27
1 -1.7801765e-12 3.6776824e-27
1 -1.7801765e-12 4.3345985e-27
1 6.0837312e-13 1.2919031e-28
1 6.0837312e-13 1.7785546e-28
1 6.0837312e-13 2.2673187e-28
1 6.0837312e-13 2.7550556e-28
1 6.0837312e-13 3.2415736e-28
1 1.1931406e-13 4.6720396e-31
1 1.1931406e-13 5.7318229e-31
1 1.1931406e-13 8.0260847e-31
1 1.1931406e-13 9.1980205e-31
1 1.1931406e-13 1.0691557e-30
1 -2.7330114e-12 2.8963456e-27
1 -2.7330114e-12 4.0545955e-27
1 -2.7330114e-12 5.2133558e-27
1 -2.7330114e-12 6.3719438e-27
1 -2.7330114e-12 7.5306429e-27
1 -6.2624578e-13 2.5391324e-28
1 -6.2624578e-13 3.5354622e-28
1 -6.2624578e-13 4.5303578e-28
1 -6.2624578e-13 5.5271397e-28
1 -6.2624578e-13 6.5229104e-28
1 -2.2816347e-12 2.1885662e-27
1 -2.2816347e-12 3.0303625e-27
1 -2.2816347e-12 3.8719367e-27
1 -2.2816347e-12 4.7138733e-27
1 -2.2816347e-12 5.5559492e-27
1 7.7854742e-13 1.6527875e-28
1 7.7854742e-13 2.2753479e-28
1 7.7854742e-13 2.9005304e-28
1 7.7854742e-13 3.5246102e-28
1 7.7854742e-13 4.1470576e-28
1 1.5245686e-13 6.2299329e-31
1 1.5245686e-13 7.6715525e-31
1 1.5245686e-13 1.0627944e-30
1 1.5245686e-13 1.2214376e-30
1 1.5245686e-13 1.427785e-30
1 -3.3403472e-12 3.5399397e-27
1 -3.3403472e-12 4.9557646e-27
1 -3.3403472e-12 6.3718205e-27
1 -3.3403472e-12 7.787855e-27
1 -3.3403472e-12 9.2040779e-27
1 -7.6464264e-13 3.0997777e-28
1 -7.6464264e-13 4.3160947e-28
1 -7.6464264e-13 5.5306725e-28
1 -7.6464264e-13 6.747551e-28
1 -7.6464264e-13 7.9632817e-28
1 -2.7830929e-12 2.669758e-27
1 -2.7830929e-12 3.696621e-27
1 -2.7830929e-12 4.7232314e-27
1 -2.7830929e-12 5.7501559e-27
1 -2.7830929e-12 6.7774719e-27
1 9.4872172e-13 2.0146623e-28
1 9.4872172e-13 2.773485e-28
1 9.4872172e-13 3.5355954e-28
1 9.4872172e-13 4.2962189e-28
1 9.4872172e-13 5.0549471e-28
1 1.8559966e-13 7.4598852e-31
1 1.8559966e-13 9.1658272e-31
1 1.8559966e-13 1.2753392e-30
1 1.8559966e-13 1.4631031e-30
1 1.8559966e-13 1.7120241e-30
1 -3.9476831e-12 4.1834511e-27
1 -3.9476831e-12 5.8566366e-27
1 -3.9476831e-12 7.5301321e-27
1 -3.9476831e-12 9.2035907e-27
1 -3.9476831e-12 1.0877306e-26
1 -9.0303949e-13 3.6611654e-28
1 -9.0303949e-13 5.0977423e-28
1 -9.0303949e-13 6.5322903e-28
1 -9.0303949e-13 7.9696689e-28
1 -9.0303949e-13 9.4055097e-28
1 -3.2845511e-12 3.1502623e-27
1 -3.2845511e-12 4.3619606e-27
1 -3.2845511e-12 5.5733199e-27
1 -3.2845511e-12 6.7854696e-27
1 -3.2845511e-12 7.9973377e-27
1 1.118896e-12 2.3760209e-28
1 1.118896e-12 3.2712532e-28
1 1.118896e-12 4.1698564e-28
1 1.118896e-12 5.0669391e-28
1 1.118896e-12 5.9619225e-28
1 2.1874245e-13 9.2088215e-31
1 2.1874245e-13 1.140183e-30
1 2.1874245e-13 1.5720581e-30
1 2.1874245e-13 1.8120953e-30
1 2.1874245e-13 2.1180823e-30
