# vtk DataFile Version 4.0
hesp visualization file
ASCII
DATASET UNSTRUCTURED_GRID
POINTS 125 double
0.5 0.41751712 0.5
0.5 0.41751712 0.7
0.5 0.41751712 0.9
0.5 0.41751712 1.1
0.5 0.41751712 1.3
0.505 0.22472997 0.51
0.505 0.22472997 0.71
0.505 0.22472997 0.91
0.505 0.22472997 1.11
0.505 0.22472997 1.31
0.51 0.21737774 0.52
0.51 0.21737774 0.72
0.51 0.21737774 0.92
0.51 0.21737774 1.12
0.51 0.21737774 1.32
0.515 0.25946279 0.53
0.515 0.25946279 0.73
0.515 0.25946279 0.93
0.515 0.25946279 1.13
0.515 0.25946279 1.33
0.52 0.31906108 0.54
0.52 0.31906108 0.74
0.52 0.31906108 0.94
0.52 0.31906108 1.14
0.52 0.31906108 1.34
0.7 0.41751712 0.5
0.7 0.41751712 0.7
0.7 0.41751712 0.9
0.7 0.41751712 1.1
0.7 0.41751712 1.3
0.705 0.22472997 0.51
0.705 0.22472997 0.71
0.705 0.22472997 0.91
0.705 0.22472997 1.11
0.705 0.22472997 1.31
0.71 0.21737774 0.52
0.71 0.21737774 0.72
0.71 0.21737774 0.92
0.71 0.21737774 1.12
0.71 0.21737774 1.32
0.715 0.25946279 0.53
0.715 0.25946279 0.73
0.715 0.25946279 0.93
0.715 0.25946279 1.13
0.715 0.25946279 1.33
0.72 0.31906108 0.54
0.72 0.31906108 0.74
0.72 0.31906108 0.94
0.72 0.31906108 1.14
0.72 0.31906108 1.34
0.9 0.41751712 0.5
0.9 0.41751712 0.7
0.9 0.41751712 0.9
0.9 0.41751712 1.1
0.9 0.41751712 1.3
0.905 0.22472997 0.51
0.905 0.22472997 0.71
0.905 0.22472997 0.91
0.905 0.22472997 1.11
0.905 0.22472997 1.31
0.91 0.21737774 0.52
0.91 0.21737774 0.72
0.91 0.21737774 0.92
0.91 0.21737774 1.12
0.91 0.21737774 1.32
0.915 0.25946279 0.53
0.915 0.25946279 0.73
0.915 0.25946279 0.93
0.915 0.25946279 1.13
0.915 0.25946279 1.33
0.92 0.31906108 0.54
0.92 0.31906108 0.74
0.92 0.31906108 0.94
0.92 0.31906108 1.14
0.92 0.31906108 1.34
1.1 0.41751712 0.5
1.1 0.41751712 0.7
1.1 0.41751712 0.9
1.1 0.41751712 1.1
1.1 0.41751712 1.3
1.105 0.22472997 0.51
1.105 0.22472997 0.71
1.105 0.22472997 0.91
1.105 0.22472997 1.11
1.105 0.22472997 1.31
1.11 0.21737774 0.52
1.11 0.21737774 0.72
1.11 0.21737774 0.92
1.11 0.21737774 1.12
1.11 0.21737774 1.32
1.115 0.25946279 0.53
1.115 0.25946279 0.73
1.115 0.25946279 0.93
1.115 0.25946279 1.13
1.115 0.25946279 1.33
1.12 0.31906108 0.54
1.12 0.31906108 0.74
1.12 0.31906108 0.94
1.12 0.31906108 1.14
1.12 0.31906108 1.34
1.3 0.41751712 0.5
1.3 0.41751712 0.7
1.3 0.41751712 0.9
1.3 0.41751712 1.1
1.3 0.41751712 1.3
1.305 0.22472997 0.51
1.305 0.22472997 0.71
1.305 0.22472997 0.91
1.305 0.22472997 1.11
1.305 0.22472997 1.31
1.31 0.21737774 0.52
1.31 0.21737774 0.72
1.31 0.21737774 0.92
1.31 0.21737774 1.12
1.31 0.21737774 1.32
1.315 0.25946279 0.53
1.315 0.25946279 0.73
1.315 0.25946279 0.93
1.315 0.25946279 1.13
1.315 0.25946279 1.33
1.32 0.31906108 0.54
1.32 0.31906108 0.74
1.32 0.31906108 0.94
1.32 0.31906108 1.14
1.32 0.31906108 1.34
CELLS 0 0
CELL_TYPES 0
POINT_DATA 125
SCALARS m double
LOOKUP_TABLE default
1
1
1
1
1
1
1
1
1
1
1
1
1
1
1
1
1
1
1
1
1
1
1
1
1
1
1
1
1
1
1
1
1
1
1
1
1
1
1
1
1
1
1
1
1
1
1
1
1
1
1
1
1
1
1
1
1
1
1
1
1
1
1
1
1
1
1
1
1
1
1
1
1
1
1
1
1
1
1
1
1
1
1
1
1
1
1
1
1
1
1
1
1
1
1
1
1
1
1
1
1
1
1
1
1
1
1
1
1
1
1
1
1
1
1
1
1
1
1
1
1
1
1
1
1
SCALARS r double
LOOKUP_TABLE default
0.1
0.1
0.1
0.1
0.1
0.1
0.1
0.1
0.1
0.1
0.1
0.1
0.1
0.1
0.1
0.1
0.1
0.1
0.1
0.1
0.1
0.1
0.1
0.1
0.1
0.1
0.1
0.1
0.1
0.1
0.1
0.1
0.1
0.1
0.1
0.1
0.1
0.1
0.1
0.1
0.1
0.1
0.1
0.1
0.1
0.1
0.1
0.1
0.1
0.1
0.1
0.1
0.1
0.1
0.1
0.1
0.1
0.1
0.1
0.1
0.1
0.1
0.1
0.1
0.1
0.1
0.1
0.1
0.1
0.1
0.1
0.1
0.1
0.1
0.1
0.1
0.1
0.1
0.1
0.1
0.1
0.1
0.1
0.1
0.1
0.1
0.1
0.1
0.1
0.1
0.1
0.1
0.1
0.1
0.1
0.1
0.1
0.1
0.1
0.1
0.1
0.1
0.1
0.1
0.1
0.1
0.1
0.1
0.1
0.1
0.1
0.1
0.1
0.1
0.1
0.1
0.1
0.1
0.1
0.1
0.1
0.1
0.1
0.1
0.1
VECTORS v double
4.9689238e-20 0.0015772625 4.9689238e-20
4.9689238e-20 0.0015772625 6.9564934e-20
4.9689238e-20 0.0015772625 8.9440629e-20
4.9689238e-20 0.0015772625 1.0931632e-19
4.9689238e-20 0.0015772625 1.2919202e-19
0 0.49462104 0
0 0.49462104 0
0 0.49462104 0
0 0.49462104 0
0 0.49462104 0
4.1683425e-20 0.029219128 4.2500747e-20
4.1683425e-20 0.029219128 5.8847189e-20
4.1683425e-20 0.029219128 7.519363e-20
4.1683425e-20 0.029219128 9.1540071e-20
4.1683425e-20 0.029219128 1.0788651e-19
-2.1590944e-20 -0.49692796 -2.2219806e-20
-2.1590944e-20 -0.49692796 -3.0604638e-20
-2.1590944e-20 -0.49692796 -3.8989471e-20
-2.1590944e-20 -0.49692796 -4.7374303e-20
-2.1590944e-20 -0.49692796 -5.5759136e-20
0 -0.37693892 0
0 -0.37693892 0
0 -0.37693892 0
0 -0.37693892 0
0 -0.37693892 0
6.9564934e-20 0.0015772625 4.9689238e-20
6.9564934e-20 0.0015772625 6.9564934e-20
6.9564934e-20 0.0015772625 8.9440629e-20
6.9564934e-20 0.0015772625 1.0931632e-19
6.9564934e-20 0.0015772625 1.2919202e-19
0 0.49462104 0
0 0.49462104 0
0 0.49462104 0
0 0.49462104 0
0 0.49462104 0
5.8029867e-20 0.029219128 4.2500747e-20
5.8029867e-20 0.029219128 5.8847189e-20
5.8029867e-20 0.029219128 7.519363e-20
5.8029867e-20 0.029219128 9.1540071e-20
5.8029867e-20 0.029219128 1.0788651e-19
-2.9975776e-20 -0.49692796 -2.2219806e-20
-2.9975776e-20 -0.49692796 -3.0604638e-20
-2.9975776e-20 -0.49692796 -3.8989471e-20
-2.9975776e-20 -0.49692796 -4.7374303e-20
-2.9975776e-20 -0.49692796 -5.5759136e-20
0 -0.37693892 0
0 -0.37693892 0
0 -0.37693892 0
0 -0.37693892 0
0 -0.37693892 0
8.9440629e-20 0.0015772625 4.9689238e-20
8.9440629e-20 0.0015772625 6.9564934e-20
8.9440629e-20 0.0015772625 8.9440629e-20
8.9440629e-20 0.0015772625 1.0931632e-19
8.9440629e-20 0.0015772625 1.2919202e-19
0 0.49462104 0
0 0.49462104 0
0 0.49462104 0
0 0.49462104 0
0 0.49462104 0
7.4376308e-20 0.029219128 4.2500747e-20
7.4376308e-20 0.029219128 5.8847189e-20
7.4376308e-20 0.029219128 7.519363e-20
7.4376308e-20 0.029219128 9.1540071e-20
7.4376308e-20 0.029219128 1.0788651e-19
-3.8360608e-20 -0.49692796 -2.2219806e-20
-3.8360608e-20 -0.49692796 -3.0604638e-20
-3.8360608e-20 -0.49692796 -3.8989471e-20
-3.8360608e-20 -0.49692796 -4.7374303e-20
-3.8360608e-20 -0.49692796 -5.5759136e-20
0 -0.37693892 0
0 -0.37693892 0
0 -0.37693892 0
0 -0.37693892 0
0 -0.37693892 0
1.0931632e-19 0.0015772625 4.9689238e-20
1.0931632e-19 0.0015772625 6.9564934e-20
1.0931632e-19 0.0015772625 8.9440629e-20
1.0931632e-19 0.0015772625 1.0931632e-19
1.0931632e-19 0.0015772625 1.2919202e-19
0 0.49462104 0
0 0.49462104 0
0 0.49462104 0
0 0.49462104 0
0 0.49462104 0
9.0722749e-20 0.029219128 4.2500747e-20
9.0722749e-20 0.029219128 5.8847189e-20
9.0722749e-20 0.029219128 7.519363e-20
9.0722749e-20 0.029219128 9.1540071e-20
9.0722749e-20 0.029219128 1.0788651e-19
-4.6745441e-20 -0.49692796 -2.2219806e-20
-4.6745441e-20 -0.49692796 -3.0604638e-20
-4.6745441e-20 -0.49692796 -3.8989471e-20
-4.6745441e-20 -0.49692796 -4.7374303e-20
-4.6745441e-20 -0.49692796 -5.5759136e-20
0 -0.37693892 0
0 -0.37693892 0
0 -0.37693892 0
0 -0.37693892 0
0 -0.37693892 0
1.2919202e-19 0.0015772625 4.9689238e-20
1.2919202e-19 0.0015772625 6.9564934e-20
1.2919202e-19 0.0015772625 8.9440629e-20
1.2919202e-19 0.0015772625 1.0931632e-19
1.2919202e-19 0.0015772625 1.2919202e-19
0 0.49462104 0
0 0.49462104 0
0 0.49462104 0
0 0.49462104 0
0 0.49462104 0
1.0706919e-19 0.029219128 4.2500747e-20
1.0706919e-19 0.029219128 5.8847189e-20
1.0706919e-19 0.029219128 7.519363e-20
1.0706919e-19 0.029219128 9.1540071e-20
1.0706919e-19 0.029219128 1.0788651e-19
-5.5130273e-20 -0.49692796 -2.2219806e-20
-5.5130273e-20 -0.49692796 -3.0604638e-20
-5.5130273e-20 -0.49692796 -3.8989471e-20
-5.5130273e-20 -0.49692796 -4.7374303e-20
-5.5130273e-20 -0.49692796 -5.5759136e-20
0 -0.37693892 0
0 -0.37693892 0
0 -0.37693892 0
0 -0.37693892 0
0 -0.37693892 0
VECTORS q double
1 -4.167917e-15 1.250882e-31
1 -4.167917e-15 1.7488738e-31
1 -4.167917e-15 2.2442037e-31
1 -4.167917e-15 2.7507823e-31
1 -4.167917e-15 3.2397824e-31
1 0 0
1 0 0
1 0 0
1 0 0
1 0 0
1 -5.7587266e-15 2.1972387e-31
1 -5.7587266e-15 3.0439503e-31
1 -5.7587266e-15 3.8832676e-31
1 -5.7587266e-15 4.7344472e-31
1 -5.7587266e-15 5.5829162e-31
1 1.0768196e-14 4.2236045e-31
1 1.0768196e-14 5.8128603e-31
1 1.0768196e-14 7.4136678e-31
1 1.0768196e-14 9.0047626e-31
1 1.0768196e-14 1.0590117e-30
1 7.2886142e-16 5.4885907e-33
1 7.2886142e-16 7.521402e-33
1 7.2886142e-16 9.5542134e-33
1 7.2886142e-16 1.1587025e-32
1 7.2886142e-16 1.3619836e-32
1 -5.8350837e-15 1.7551168e-31
1 -5.8350837e-15 2.4543622e-31
1 -5.8350837e-15 3.1436687e-31
1 -5.8350837e-15 3.8550511e-31
1 -5.8350837e-15 4.540803e-31
1 0 0
1 0 0
1 0 0
1 0 0
1 0 0
1 -8.0170508e-15 3.0581814e-31
1 -8.0170508e-15 4.2359749e-31
1 -8.0170508e-15 5.4050226e-31
1 -8.0170508e-15 6.5944023e-31
1 -8.0170508e-15 7.7720739e-31
1 1.495002e-14 5.8637767e-31
1 1.495002e-14 8.0706497e-31
1 1.495002e-14 1.0291844e-30
1 1.495002e-14 1.2504819e-30
1 1.495002e-14 1.4707806e-30
1 1.0091927e-15 7.5995871e-33
1 1.0091927e-15 1.0414249e-32
1 1.0091927e-15 1.3228911e-32
1 1.0091927e-15 1.6043573e-32
1 1.0091927e-15 1.8858235e-32
1 -7.5022505e-15 2.2576904e-31
1 -7.5022505e-15 3.1579174e-31
1 -7.5022505e-15 4.052815e-31
1 -7.5022505e-15 4.9658163e-31
1 -7.5022505e-15 5.8460016e-31
1 0 0
1 0 0
1 0 0
1 0 0
1 0 0
1 -1.0275375e-14 3.9299156e-31
1 -1.0275375e-14 5.4441191e-31
1 -1.0275375e-14 6.9438374e-31
1 -1.0275375e-14 8.4734433e-31
1 -1.0275375e-14 9.9895063e-31
1 1.9131844e-14 7.5014414e-31
1 1.9131844e-14 1.0324905e-30
1 1.9131844e-14 1.3166811e-30
1 1.9131844e-14 1.600036e-30
1 1.9131844e-14 1.8814559e-30
1 1.289524e-15 9.7105835e-33
1 1.289524e-15 1.3307096e-32
1 1.289524e-15 1.6903608e-32
1 1.289524e-15 2.0500121e-32
1 1.289524e-15 2.4096633e-32
1 -9.1694173e-15 2.7510738e-31
1 -9.1694173e-15 3.848156e-31
1 -9.1694173e-15 4.9393545e-31
1 -9.1694173e-15 6.0572704e-31
1 -9.1694173e-15 7.1244863e-31
1 0 0
1 0 0
1 0 0
1 0 0
1 0 0
1 -1.2533699e-14 4.7851353e-31
1 -1.2533699e-14 6.6299879e-31
1 -1.2533699e-14 8.4606726e-31
1 -1.2533699e-14 1.0317338e-30
1 -1.2533699e-14 1.2169576e-30
1 2.3313668e-14 9.1457113e-31
1 2.3313668e-14 1.2586661e-30
1 2.3313668e-14 1.6054118e-30
1 2.3313668e-14 1.950369e-30
1 2.3313668e-14 2.2936708e-30
1 1.5698554e-15 1.182158e-32
1 1.5698554e-15 1.6199943e-32
1 1.5698554e-15 2.0578306e-32
1 1.5698554e-15 2.4956669e-32
1 1.5698554e-15 2.9335032e-32
1 -1.0836584e-14 3.2649442e-31
1 -1.0836584e-14 4.5668647e-31
1 -1.0836584e-14 5.8547492e-31
1 -1.0836584e-14 7.1816242e-31
1 -1.0836584e-14 8.4695264e-31
1 0 0
1 0 0
1 0 0
1 0 0
1 0 0
1 -1.4792023e-14 5.6536893e-31
1 -1.4792023e-14 7.8376323e-31
1 -1.4792023e-14 9.9973429e-31
1 -1.4792023e-14 1.2189409e-30
1 -1.4792023e-14 1.4373906e-30
1 2.7495491e-14 1.0780171e-30
1 2.7495491e-14 1.484064e-30
1 2.7495491e-14 1.8922289e-30
1 2.7495491e-14 2.2991333e-30
1 2.7495491e-14 2.7039972e-30
1 1.8501867e-15 1.3932576e-32
1 1.8501867e-15 1.909279e-32
1 1.8501867e-15 2.4253003e-32
1 1.8501867e-15 2.9413217e-32
1 1.8501867e-15 3.457343e-32
