# vtk DataFile Version 4.0
hesp visualization file
ASCII
DATASET UNSTRUCTURED_GRID
POINTS 125 double
0.5 0.24619991 0.5
0.5 0.24619991 0.7
0.5 0.24619991 0.9
0.5 0.24619991 1.1
0.5 0.24619991 1.3
0.505 0.25976651 0.51
0.505 0.25976651 0.71
0.505 0.25976651 0.91
0.505 0.25976651 1.11
0.505 0.25976651 1.31
0.51 0.21375556 0.52
0.51 0.21375556 0.72
0.51 0.21375556 0.92
0.51 0.21375556 1.12
0.51 0.21375556 1.32
0.515 0.25866205 0.53
0.515 0.25866205 0.73
0.515 0.25866205 0.93
0.515 0.25866205 1.13
0.515 0.25866205 1.33
0.52 0.20753736 0.54
0.52 0.20753736 0.74
0.52 0.20753736 0.94
0.52 0.20753736 1.14
0.52 0.20753736 1.34
0.7 0.24619991 0.5
0.7 0.24619991 0.7
0.7 0.24619991 0.9
0.7 0.24619991 1.1
0.7 0.24619991 1.3
0.705 0.25976651 0.51
0.705 0.25976651 0.71
0.705 0.25976651 0.91
0.705 0.25976651 1.11
0.705 0.25976651 1.31
0.71 0.21375556 0.52
0.71 0.21375556 0.72
0.71 0.21375556 0.92
0.71 0.21375556 1.12
0.71 0.21375556 1.32
0.715 0.25866205 0.53
0.715 0.25866205 0.73
0.715 0.25866205 0.93
0.715 0.25866205 1.13
0.715 0.25866205 1.33
0.72 0.20753736 0.54
0.72 0.20753736 0.74
0.72 0.20753736 0.94
0.72 0.20753736 1.14
0.72 0.20753736 1.34
0.9 0.24619991 0.5
0.9 0.24619991 0.7
0.9 0.24619991 0.9
0.9 0.24619991 1.1
0.9 0.24619991 1.3
0.905 0.25976651 0.51
0.905 0.25976651 0.71
0.905 0.25976651 0.91
0.905 0.25976651 1.11
0.905 0.25976651 1.31
0.91 0.21375556 0.52
0.91 0.21375556 0.72
0.91 0.21375556 0.92
0.91 0.21375556 1.12
0.91 0.21375556 1.32
0.915 0.25866205 0.53
0.915 0.25866205 0.73
0.915 0.25866205 0.93
0.915 0.25866205 1.13
0.915 0.25866205 1.33
0.92 0.20753736 0.54
0.92 0.20753736 0.74
0.92 0.20753736 0.94
0.92 0.20753736 1.14
0.92 0.20753736 1.34
1.1 0.24619991 0.5
1.1 0.24619991 0.7
1.1 0.24619991 0.9
1.1 0.24619991 1.1
1.1 0.24619991 1.3
1.105 0.25976651 0.51
1.105 0.25976651 0.71
1.105 0.25976651 0.91
1.105 0.25976651 1.11
1.105 0.25976651 1.31
1.11 0.21375556 0.52
1.11 0.21375556 0.72
1.11 0.21375556 0.92
1.11 0.21375556 1.12
1.11 0.21375556 1.32
1.115 0.25866205 0.53
1.115 0.25866205 0.73
1.115 0.25866205 0.93
1.115 0.25866205 1.13
1.115 0.25866205 1.33
1.12 0.20753736 0.54
1.12 0.20753736 0.74
1.12 0.20753736 0.94
1.12 0.20753736 1.14
1.12 0.20753736 1.34
1.3 0.24619991 0.5
1.3 0.24619991 0.7
1.3 0.24619991 0.9
1.3 0.24619991 1.1
1.3 0.24619991 1.3
1.305 0.25976651 0.51
1.305 0.25976651 0.71
1.305 0.25976651 0.91
1.305 0.25976651 1.11
1.305 0.25976651 1.31
1.31 0.21375556 0.52
1.31 0.21375556 0.72
1.31 0.21375556 0.92
1.31 0.21375556 1.12
1.31 0.21375556 1.32
1.315 0.25866205 0.53
1.315 0.25866205 0.73
1.315 0.25866205 0.93
1.315 0.25866205 1.13
1.315 0.25866205 1.33
1.32 0.20753736 0.54
1.32 0.20753736 0.74
1.32 0.20753736 0.94
1.32 0.20753736 1.14
1.32 0.20753736 1.34
CELLS 0 0
CELL_TYPES 0
POINT_DATA 125
SCALARS m double
LOOKUP_TABLE default
1
1
1
1
1
1
1
1
1
1
1
1
1
1
1
1
1
1
1
1
1
1
1
1
1
1
1
1
1
1
1
1
1
1
1
1
1
1
1
1
1
1
1
1
1
1
1
1
1
1
1
1
1
1
1
1
1
1
1
1
1
1
1
1
1
1
1
1
1
1
1
1
1
1
1
1
1
1
1
1
1
1
1
1
1
1
1
1
1
1
1
1
1
1
1
1
1
1
1
1
1
1
1
1
1
1
1
1
1
1
1
1
1
1
1
1
1
1
1
1
1
1
1
1
1
SCALARS r double
LOOKUP_TABLE default
0.1
0.1
0.1
0.1
0.1
0.1
0.1
0.1
0.1
0.1
0.1
0.1
0.1
0.1
0.1
0.1
0.1
0.1
0.1
0.1
0.1
0.1
0.1
0.1
0.1
0.1
0.1
0.1
0.1
0.1
0.1
0.1
0.1
0.1
0.1
0.1
0.1
0.1
0.1
0.1
0.1
0.1
0.1
0.1
0.1
0.1
0.1
0.1
0.1
0.1
0.1
0.1
0.1
0.1
0.1
0.1
0.1
0.1
0.1
0.1
0.1
0.1
0.1
0.1
0.1
0.1
0.1
0.1
0.1
0.1
0.1
0.1
0.1
0.1
0.1
0.1
0.1
0.1
0.1
0.1
0.1
0.1
0.1
0.1
0.1
0.1
0.1
0.1
0.1
0.1
0.1
0.1
0.1
0.1
0.1
0.1
0.1
0.1
0.1
0.1
0.1
0.1
0.1
0.1
0.1
0.1
0.1
0.1
0.1
0.1
0.1
0.1
0.1
0.1
0.1
0.1
0.1
0.1
0.1
0.1
0.1
0.1
0.1
0.1
0.1
VECTORS v double
9.7123114e-19 -0.17978312 9.7123114e-19
9.7123114e-19 -0.17978312 1.3597236e-18
9.7123114e-19 -0.17978312 1.7482161e-18
9.7123114e-19 -0.17978312 2.1367085e-18
9.7123114e-19 -0.17978312 2.525201e-18
3.2000538e-19 0.035684352 3.2317375e-19
3.2000538e-19 0.035684352 4.4990856e-19
3.2000538e-19 0.035684352 5.7664336e-19
3.2000538e-19 0.035684352 7.0337817e-19
3.2000538e-19 0.035684352 8.3011297e-19
8.9636089e-19 -0.052350577 9.1393659e-19
8.9636089e-19 -0.052350577 1.2654507e-18
8.9636089e-19 -0.052350577 1.6169647e-18
8.9636089e-19 -0.052350577 1.9684788e-18
8.9636089e-19 -0.052350577 2.3199929e-18
-2.0480987e-19 0.11969526 -2.107752e-19
-2.0480987e-19 0.11969526 -2.9031302e-19
-2.0480987e-19 0.11969526 -3.6985083e-19
-2.0480987e-19 0.11969526 -4.4938864e-19
-2.0480987e-19 0.11969526 -5.2892645e-19
-1.8339744e-20 0.23445641 -1.9045119e-20
-1.8339744e-20 0.23445641 -2.6098866e-20
-1.8339744e-20 0.23445641 -3.3152614e-20
-1.8339744e-20 0.23445641 -4.0206362e-20
-1.8339744e-20 0.23445641 -4.726011e-20
1.3597236e-18 -0.17978312 9.7123114e-19
1.3597236e-18 -0.17978312 1.3597236e-18
1.3597236e-18 -0.17978312 1.7482161e-18
1.3597236e-18 -0.17978312 2.1367085e-18
1.3597236e-18 -0.17978312 2.525201e-18
4.4674019e-19 0.035684352 3.2317375e-19
4.4674019e-19 0.035684352 4.4990856e-19
4.4674019e-19 0.035684352 5.7664336e-19
4.4674019e-19 0.035684352 7.0337817e-19
4.4674019e-19 0.035684352 8.3011297e-19
1.247875e-18 -0.052350577 9.1393659e-19
1.247875e-18 -0.052350577 1.2654507e-18
1.247875e-18 -0.052350577 1.6169647e-18
1.247875e-18 -0.052350577 1.9684788e-18
1.247875e-18 -0.052350577 2.3199929e-18
-2.8434768e-19 0.11969526 -2.107752e-19
-2.8434768e-19 0.11969526 -2.9031302e-19
-2.8434768e-19 0.11969526 -3.6985083e-19
-2.8434768e-19 0.11969526 -4.4938864e-19
-2.8434768e-19 0.11969526 -5.2892645e-19
-2.5393492e-20 0.23445641 -1.9045119e-20
-2.5393492e-20 0.23445641 -2.6098866e-20
-2.5393492e-20 0.23445641 -3.3152614e-20
-2.5393492e-20 0.23445641 -4.0206362e-20
-2.5393492e-20 0.23445641 -4.726011e-20
1.7482161e-18 -0.17978312 9.7123114e-19
1.7482161e-18 -0.17978312 1.3597236e-18
1.7482161e-18 -0.17978312 1.7482161e-18
1.7482161e-18 -0.17978312 2.1367085e-18
1.7482161e-18 -0.17978312 2.525201e-18
5.7347499e-19 0.035684352 3.2317375e-19
5.7347499e-19 0.035684352 4.4990856e-19
5.7347499e-19 0.035684352 5.7664336e-19
5.7347499e-19 0.035684352 7.0337817e-19
5.7347499e-19 0.035684352 8.3011297e-19
1.599389e-18 -0.052350577 9.1393659e-19
1.599389e-18 -0.052350577 1.2654507e-18
1.599389e-18 -0.052350577 1.6169647e-18
1.599389e-18 -0.052350577 1.9684788e-18
1.599389e-18 -0.052350577 2.3199929e-18
-3.6388549e-19 0.11969526 -2.107752e-19
-3.6388549e-19 0.11969526 -2.9031302e-19
-3.6388549e-19 0.11969526 -3.6985083e-19
-3.6388549e-19 0.11969526 -4.4938864e-19
-3.6388549e-19 0.11969526 -5.2892645e-19
-3.2447239e-20 0.23445641 -1.9045119e-20
-3.2447239e-20 0.23445641 -2.6098866e-20
-3.2447239e-20 0.23445641 -3.3152614e-20
-3.2447239e-20 0.23445641 -4.0206362e-20
-3.2447239e-20 0.23445641 -4.726011e-20
2.1367085e-18 -0.17978312 9.7123114e-19
2.1367085e-18 -0.17978312 1.3597236e-18
2.1367085e-18 -0.17978312 1.7482161e-18
2.1367085e-18 -0.17978312 2.1367085e-18
2.1367085e-18 -0.17978312 2.525201e-18
7.002098e-19 0.035684352 3.2317375e-19
7.002098e-19 0.035684352 4.4990856e-19
7.002098e-19 0.035684352 5.7664336e-19
7.002098e-19 0.035684352 7.0337817e-19
7.002098e-19 0.035684352 8.3011297e-19
1.9509031e-18 -0.052350577 9.1393659e-19
1.9509031e-18 -0.052350577 1.2654507e-18
1.9509031e-18 -0.052350577 1.6169647e-18
1.9509031e-18 -0.052350577 1.9684788e-18
1.9509031e-18 -0.052350577 2.3199929e-18
-4.4342331e-19 0.11969526 -2.107752e-19
-4.4342331e-19 0.11969526 -2.9031302e-19
-4.4342331e-19 0.11969526 -3.6985083e-19
-4.4342331e-19 0.11969526 -4.4938864e-19
-4.4342331e-19 0.11969526 -5.2892645e-19
-3.9500987e-20 0.23445641 -1.9045119e-20
-3.9500987e-20 0.23445641 -2.6098866e-20
-3.9500987e-20 0.23445641 -3.3152614e-20
-3.9500987e-20 0.23445641 -4.0206362e-20
-3.9500987e-20 0.23445641 -4.726011e-20
2.525201e-18 -0.17978312 9.7123114e-19
2.525201e-18 -0.17978312 1.3597236e-18
2.525201e-18 -0.17978312 1.7482161e-18
2.525201e-18 -0.17978312 2.1367085e-18
2.525201e-18 -0.17978312 2.525201e-18
8.269446e-19 0.035684352 3.2317375e-19
8.269446e-19 0.035684352 4.4990856e-19
8.269446e-19 0.035684352 5.7664336e-19
8.269446e-19 0.035684352 7.0337817e-19
8.269446e-19 0.035684352 8.3011297e-19
2.3024172e-18 -0.052350577 9.1393659e-19
2.3024172e-18 -0.052350577 1.2654507e-18
2.3024172e-18 -0.052350577 1.6169647e-18
2.3024172e-18 -0.052350577 1.9684788e-18
2.3024172e-18 -0.052350577 2.3199929e-18
-5.2296112e-19 0.11969526 -2.107752e-19
-5.2296112e-19 0.11969526 -2.9031302e-19
-5.2296112e-19 0.11969526 -3.6985083e-19
-5.2296112e-19 0.11969526 -4.4938864e-19
-5.2296112e-19 0.11969526 -5.2892645e-19
-4.6554735e-20 0.23445641 -1.9045119e-20
-4.6554735e-20 0.23445641 -2.6098866e-20
-4.6554735e-20 0.23445641 -3.3152614e-20
-4.6554735e-20 0.23445641 -4.0206362e-20
-4.6554735e-20 0.23445641 -4.726011e-20
VECTORS q double
1 -1.1539074e-12 1.0396132e-27
1 -1.1539074e-12 1.4554504e-27
1 -1.1539074e-12 1.8712902e-27
1 -1.1539074e-12 2.2871487e-27
1 -1.1539074e-12 2.7030778e-27
1 -2.1872404e-13 6.6463262e-29
1 -2.1872404e-13 9.2542004e-29
1 -2.1872404e-13 1.1858268e-28
1 -2.1872404e-13 1.4468828e-28
1 -2.1872404e-13 1.7074706e-28
1 -9.5847459e-13 7.6474378e-28
1 -9.5847459e-13 1.0588674e-27
1 -9.5847459e-13 1.3529262e-27
1 -9.5847459e-13 1.6471091e-27
1 -9.5847459e-13 1.9414199e-27
1 3.6232013e-13 7.3970636e-29
1 3.6232013e-13 1.0183006e-28
1 3.6232013e-13 1.2981301e-28
1 3.6232013e-13 1.5773953e-28
1 3.6232013e-13 1.8559643e-28
1 8.1723367e-14 1.5154749e-30
1 8.1723367e-14 2.0380891e-30
1 8.1723367e-14 2.6262723e-30
1 8.1723367e-14 3.1576716e-30
1 8.1723367e-14 3.7075457e-30
1 -1.6154703e-12 1.4554647e-27
1 -1.6154703e-12 2.0376403e-27
1 -1.6154703e-12 2.619968e-27
1 -1.6154703e-12 3.202094e-27
1 -1.6154703e-12 3.7843809e-27
1 -3.0534742e-13 9.2772569e-29
1 -3.0534742e-13 1.2918103e-28
1 -3.0534742e-13 1.6553322e-28
1 -3.0534742e-13 2.0196434e-28
1 -3.0534742e-13 2.3834467e-28
1 -1.334347e-12 1.06468e-27
1 -1.334347e-12 1.4741956e-27
1 -1.334347e-12 1.8835731e-27
1 -1.334347e-12 2.2931082e-27
1 -1.334347e-12 2.7027731e-27
1 5.0302697e-13 1.0272856e-28
1 5.0302697e-13 1.4142318e-28
1 5.0302697e-13 1.8029025e-28
1 5.0302697e-13 2.1907346e-28
1 5.0302697e-13 2.5775929e-28
1 1.1315543e-13 2.0905965e-30
1 1.1315543e-13 2.8129173e-30
1 1.1315543e-13 3.6295241e-30
1 1.1315543e-13 4.362047e-30
1 1.1315543e-13 5.1169874e-30
1 -2.0770333e-12 1.8713193e-27
1 -2.0770333e-12 2.6196746e-27
1 -2.0770333e-12 3.3683473e-27
1 -2.0770333e-12 4.1168982e-27
1 -2.0770333e-12 4.8655382e-27
1 -3.9197081e-13 1.191048e-28
1 -3.9197081e-13 1.6584401e-28
1 -3.9197081e-13 2.1250791e-28
1 -3.9197081e-13 2.5927918e-28
1 -3.9197081e-13 3.0598571e-28
1 -1.7102194e-12 1.3646601e-27
1 -1.7102194e-12 1.889553e-27
1 -1.7102194e-12 2.4142468e-27
1 -1.7102194e-12 2.939253e-27
1 -1.7102194e-12 3.4643938e-27
1 6.4373382e-13 1.3143134e-28
1 6.4373382e-13 1.8093467e-28
1 6.4373382e-13 2.3065385e-28
1 6.4373382e-13 2.8027934e-28
1 6.4373382e-13 3.2977008e-28
1 1.445875e-13 2.6898633e-30
1 1.445875e-13 3.6186435e-30
1 1.445875e-13 4.6645617e-30
1 1.445875e-13 5.605284e-30
1 1.445875e-13 6.5817445e-30
1 -2.5385962e-12 2.2871474e-27
1 -2.5385962e-12 3.2019335e-27
1 -2.5385962e-12 4.1168393e-27
1 -2.5385962e-12 5.0317288e-27
1 -2.5385962e-12 5.9467579e-27
1 -4.7859419e-13 1.4539758e-28
1 -4.7859419e-13 2.0245401e-28
1 -4.7859419e-13 2.5941827e-28
1 -4.7859419e-13 3.165203e-28
1 -4.7859419e-13 3.7353805e-28
1 -2.0860918e-12 1.6647047e-27
1 -2.0860918e-12 2.3049916e-27
1 -2.0860918e-12 2.9450583e-27
1 -2.0860918e-12 3.5854286e-27
1 -2.0860918e-12 4.226075e-27
1 7.8444066e-13 1.6020209e-28
1 7.8444066e-13 2.2053741e-28
1 7.8444066e-13 2.8114185e-28
1 7.8444066e-13 3.416249e-28
1 7.8444066e-13 4.0194987e-28
1 1.7601956e-13 3.2658013e-30
1 1.7601956e-13 4.3932997e-30
1 1.7601956e-13 5.6658325e-30
1 1.7601956e-13 6.8071596e-30
1 1.7601956e-13 7.9946819e-30
1 -3.0001592e-12 2.7029132e-27
1 -3.0001592e-12 3.7839799e-27
1 -3.0001592e-12 4.8652153e-27
1 -3.0001592e-12 5.9464257e-27
1 -3.0001592e-12 7.0278314e-27
1 -5.6521757e-13 1.7173909e-28
1 -5.6521757e-13 2.3913104e-28
1 -5.6521757e-13 3.0641559e-28
1 -5.6521757e-13 3.7386715e-28
1 -5.6521757e-13 4.412104e-28
1 -2.4619642e-12 1.9643306e-27
1 -2.4619642e-12 2.7198758e-27
1 -2.4619642e-12 3.475118e-27
1 -2.4619642e-12 4.2309753e-27
1 -2.4619642e-12 4.986741e-27
1 9.2514751e-13 1.8893582e-28
1 9.2514751e-13 2.6011998e-28
1 9.2514751e-13 3.3157969e-28
1 9.2514751e-13 4.0291031e-28
1 9.2514751e-13 4.7406872e-28
1 2.0745163e-13 3.8812631e-30
1 2.0745163e-13 5.2243458e-30
1 2.0745163e-13 6.7301142e-30
1 2.0745163e-13 8.0900584e-30
1 2.0745163e-13 9.4995684e-30
