# vtk DataFile Version 4.0
hesp visualization file
ASCII
DATASET UNSTRUCTURED_GRID
POINTS 125 double
0.5 0.22486551 0.5
0.5 0.22486551 0.7
0.5 0.22486551 0.9
0.5 0.22486551 1.1
0.5 0.22486551 1.3
0.505 0.22683423 0.51
0.505 0.22683423 0.71
0.505 0.22683423 0.91
0.505 0.22683423 1.11
0.505 0.22683423 1.31
0.51 0.26049686 0.52
0.51 0.26049686 0.72
0.51 0.26049686 0.92
0.51 0.26049686 1.12
0.51 0.26049686 1.32
0.515 0.26666021 0.53
0.515 0.26666021 0.73
0.515 0.26666021 0.93
0.515 0.26666021 1.13
0.515 0.26666021 1.33
0.52 0.21396596 0.54
0.52 0.21396596 0.74
0.52 0.21396596 0.94
0.52 0.21396596 1.14
0.52 0.21396596 1.34
0.7 0.22486551 0.5
0.7 0.22486551 0.7
0.7 0.22486551 0.9
0.7 0.22486551 1.1
0.7 0.22486551 1.3
0.705 0.22683423 0.51
0.705 0.22683423 0.71
0.705 0.22683423 0.91
0.705 0.22683423 1.11
0.705 0.22683423 1.31
0.71 0.26049686 0.52
0.71 0.26049686 0.72
0.71 0.26049686 0.92
0.71 0.26049686 1.12
0.71 0.26049686 1.32
0.715 0.26666021 0.53
0.715 0.26666021 0.73
0.715 0.26666021 0.93
0.715 0.26666021 1.13
0.715 0.26666021 1.33
0.72 0.21396596 0.54
0.72 0.21396596 0.74
0.72 0.21396596 0.94
0.72 0.21396596 1.14
0.72 0.21396596 1.34
0.9 0.22486551 0.5
0.9 0.22486551 0.7
0.9 0.22486551 0.9
0.9 0.22486551 1.1
0.9 0.22486551 1.3
0.905 0.22683423 0.51
0.905 0.22683423 0.71
0.905 0.22683423 0.91
0.905 0.22683423 1.11
0.905 0.22683423 1.31
0.91 0.26049686 0.52
0.91 0.26049686 0.72
0.91 0.26049686 0.92
0.91 0.26049686 1.12
0.91 0.26049686 1.32
0.915 0.26666021 0.53
0.915 0.26666021 0.73
0.915 0.26666021 0.93
0.915 0.26666021 1.13
0.915 0.26666021 1.33
0.92 0.21396596 0.54
0.92 0.21396596 0.74
0.92 0.21396596 0.94
0.92 0.21396596 1.14
0.92 0.21396596 1.34
1.1 0.22486551 0.5
1.1 0.22486551 0.7
1.1 0.22486551 0.9
1.1 0.22486551 1.1
1.1 0.22486551 1.3
1.105 0.22683423 0.51
1.105 0.22683423 0.71
1.105 0.22683423 0.91
1.105 0.22683423 1.11
1.105 0.22683423 1.31
1.11 0.26049686 0.52
1.11 0.26049686 0.72
1.11 0.26049686 0.92
1.11 0.26049686 1.12
1.11 0.26049686 1.32
1.115 0.26666021 0.53
1.115 0.26666021 0.73
1.115 0.26666021 0.93
1.115 0.26666021 1.13
1.115 0.26666021 1.33
1.12 0.21396596 0.54
1.12 0.21396596 0.74
1.12 0.21396596 0.94
1.12 0.21396596 1.14
1.12 0.21396596 1.34
1.3 0.22486551 0.5
1.3 0.22486551 0.7
1.3 0.22486551 0.9
1.3 0.22486551 1.1
1.3 0.22486551 1.3
1.305 0.22683423 0.51
1.305 0.22683423 0.71
1.305 0.22683423 0.91
1.305 0.22683423 1.11
1.305 0.22683423 1.31
1.31 0.26049686 0.52
1.31 0.26049686 0.72
1.31 0.26049686 0.92
1.31 0.26049686 1.12
1.31 0.26049686 1.32
1.315 0.26666021 0.53
1.315 0.26666021 0.73
1.315 0.26666021 0.93
1.315 0.26666021 1.13
1.315 0.26666021 1.33
1.32 0.21396596 0.54
1.32 0.21396596 0.74
1.32 0.21396596 0.94
1.32 0.21396596 1.14
1.32 0.21396596 1.34
CELLS 0 0
CELL_TYPES 0
POINT_DATA 125
SCALARS m double
LOOKUP_TABLE default
1
1
1
1
1
1
1
1
1
1
1
1
1
1
1
1
1
1
1
1
1
1
1
1
1
1
1
1
1
1
1
1
1
1
1
1
1
1
1
1
1
1
1
1
1
1
1
1
1
1
1
1
1
1
1
1
1
1
1
1
1
1
1
1
1
1
1
1
1
1
1
1
1
1
1
1
1
1
1
1
1
1
1
1
1
1
1
1
1
1
1
1
1
1
1
1
1
1
1
1
1
1
1
1
1
1
1
1
1
1
1
1
1
1
1
1
1
1
1
1
1
1
1
1
1
SCALARS r double
LOOKUP_TABLE default
0.1
0.1
0.1
0.1
0.1
0.1
0.1
0.1
0.1
0.1
0.1
0.1
0.1
0.1
0.1
0.1
0.1
0.1
0.1
0.1
0.1
0.1
0.1
0.1
0.1
0.1
0.1
0.1
0.1
0.1
0.1
0.1
0.1
0.1
0.1
0.1
0.1
0.1
0.1
0.1
0.1
0.1
0.1
0.1
0.1
0.1
0.1
0.1
0.1
0.1
0.1
0.1
0.1
0.1
0.1
0.1
0.1
0.1
0.1
0.1
0.1
0.1
0.1
0.1
0.1
0.1
0.1
0.1
0.1
0.1
0.1
0.1
0.1
0.1
0.1
0.1
0.1
0.1
0.1
0.1
0.1
0.1
0.1
0.1
0.1
0.1
0.1
0.1
0.1
0.1
0.1
0.1
0.1
0.1
0.1
0.1
0.1
0.1
0.1
0.1
0.1
0.1
0.1
0.1
0.1
0.1
0.1
0.1
0.1
0.1
0.1
0.1
0.1
0.1
0.1
0.1
0.1
0.1
0.1
0.1
0.1
0.1
0.1
0.1
0.1
VECTORS v double
1.3256712e-18 -0.25891719 1.3256712e-18
1.3256712e-18 -0.25891719 1.8559397e-18
1.3256712e-18 -0.25891719 2.3862082e-18
1.3256712e-18 -0.25891719 2.9164767e-18
1.3256712e-18 -0.25891719 3.4467452e-18
5.8569104e-19 0.52604569 5.9148996e-19
5.8569104e-19 0.52604569 8.2344681e-19
5.8569104e-19 0.52604569 1.0554037e-18
5.8569104e-19 0.52604569 1.2873605e-18
5.8569104e-19 0.52604569 1.5193173e-18
1.2875631e-18 0.10694512 1.3128094e-18
1.2875631e-18 0.10694512 1.8177361e-18
1.2875631e-18 0.10694512 2.3226629e-18
1.2875631e-18 0.10694512 2.8275896e-18
1.2875631e-18 0.10694512 3.3325163e-18
-2.1276677e-19 -0.036330655 -2.1896386e-19
-2.1276677e-19 -0.036330655 -3.0159173e-19
-2.1276677e-19 -0.036330655 -3.842196e-19
-2.1276677e-19 -0.036330655 -4.6684747e-19
-2.1276677e-19 -0.036330655 -5.4947534e-19
2.8811004e-20 -0.089456067 2.991912e-20
2.8811004e-20 -0.089456067 4.1000275e-20
2.8811004e-20 -0.089456067 5.2081431e-20
2.8811004e-20 -0.089456067 6.3162586e-20
2.8811004e-20 -0.089456067 7.4243742e-20
1.8559397e-18 -0.25891719 1.3256712e-18
1.8559397e-18 -0.25891719 1.8559397e-18
1.8559397e-18 -0.25891719 2.3862082e-18
1.8559397e-18 -0.25891719 2.9164767e-18
1.8559397e-18 -0.25891719 3.4467452e-18
8.1764789e-19 0.52604569 5.9148996e-19
8.1764789e-19 0.52604569 8.2344681e-19
8.1764789e-19 0.52604569 1.0554037e-18
8.1764789e-19 0.52604569 1.2873605e-18
8.1764789e-19 0.52604569 1.5193173e-18
1.7924898e-18 0.10694512 1.3128094e-18
1.7924898e-18 0.10694512 1.8177361e-18
1.7924898e-18 0.10694512 2.3226629e-18
1.7924898e-18 0.10694512 2.8275896e-18
1.7924898e-18 0.10694512 3.3325163e-18
-2.9539464e-19 -0.036330655 -2.1896386e-19
-2.9539464e-19 -0.036330655 -3.0159173e-19
-2.9539464e-19 -0.036330655 -3.842196e-19
-2.9539464e-19 -0.036330655 -4.6684747e-19
-2.9539464e-19 -0.036330655 -5.4947534e-19
3.989216e-20 -0.089456067 2.991912e-20
3.989216e-20 -0.089456067 4.1000275e-20
3.989216e-20 -0.089456067 5.2081431e-20
3.989216e-20 -0.089456067 6.3162586e-20
3.989216e-20 -0.089456067 7.4243742e-20
2.3862082e-18 -0.25891719 1.3256712e-18
2.3862082e-18 -0.25891719 1.8559397e-18
2.3862082e-18 -0.25891719 2.3862082e-18
2.3862082e-18 -0.25891719 2.9164767e-18
2.3862082e-18 -0.25891719 3.4467452e-18
1.0496047e-18 0.52604569 5.9148996e-19
1.0496047e-18 0.52604569 8.2344681e-19
1.0496047e-18 0.52604569 1.0554037e-18
1.0496047e-18 0.52604569 1.2873605e-18
1.0496047e-18 0.52604569 1.5193173e-18
2.2974165e-18 0.10694512 1.3128094e-18
2.2974165e-18 0.10694512 1.8177361e-18
2.2974165e-18 0.10694512 2.3226629e-18
2.2974165e-18 0.10694512 2.8275896e-18
2.2974165e-18 0.10694512 3.3325163e-18
-3.7802251e-19 -0.036330655 -2.1896386e-19
-3.7802251e-19 -0.036330655 -3.0159173e-19
-3.7802251e-19 -0.036330655 -3.842196e-19
-3.7802251e-19 -0.036330655 -4.6684747e-19
-3.7802251e-19 -0.036330655 -5.4947534e-19
5.0973315e-20 -0.089456067 2.991912e-20
5.0973315e-20 -0.089456067 4.1000275e-20
5.0973315e-20 -0.089456067 5.2081431e-20
5.0973315e-20 -0.089456067 6.3162586e-20
5.0973315e-20 -0.089456067 7.4243742e-20
2.9164767e-18 -0.25891719 1.3256712e-18
2.9164767e-18 -0.25891719 1.8559397e-18
2.9164767e-18 -0.25891719 2.3862082e-18
2.9164767e-18 -0.25891719 2.9164767e-18
2.9164767e-18 -0.25891719 3.4467452e-18
1.2815616e-18 0.52604569 5.9148996e-19
1.2815616e-18 0.52604569 8.2344681e-19
1.2815616e-18 0.52604569 1.0554037e-18
1.2815616e-18 0.52604569 1.2873605e-18
1.2815616e-18 0.52604569 1.5193173e-18
2.8023432e-18 0.10694512 1.3128094e-18
2.8023432e-18 0.10694512 1.8177361e-18
2.8023432e-18 0.10694512 2.3226629e-18
2.8023432e-18 0.10694512 2.8275896e-18
2.8023432e-18 0.10694512 3.3325163e-18
-4.6065038e-19 -0.036330655 -2.1896386e-19
-4.6065038e-19 -0.036330655 -3.0159173e-19
-4.6065038e-19 -0.036330655 -3.842196e-19
-4.6065038e-19 -0.036330655 -4.6684747e-19
-4.6065038e-19 -0.036330655 -5.4947534e-19
6.2054471e-20 -0.089456067 2.991912e-20
6.2054471e-20 -0.089456067 4.1000275e-20
6.2054471e-20 -0.089456067 5.2081431e-20
6.2054471e-20 -0.089456067 6.3162586e-20
6.2054471e-20 -0.089456067 7.4243742e-20
3.4467452e-18 -0.25891719 1.3256712e-18
3.4467452e-18 -0.25891719 1.8559397e-18
3.4467452e-18 -0.25891719 2.3862082e-18
3.4467452e-18 -0.25891719 2.9164767e-18
3.4467452e-18 -0.25891719 3.4467452e-18
1.5135184e-18 0.52604569 5.9148996e-19
1.5135184e-18 0.52604569 8.2344681e-19
1.5135184e-18 0.52604569 1.0554037e-18
1.5135184e-18 0.52604569 1.2873605e-18
1.5135184e-18 0.52604569 1.5193173e-18
3.3072699e-18 0.10694512 1.3128094e-18
3.3072699e-18 0.10694512 1.8177361e-18
3.3072699e-18 0.10694512 2.3226629e-18
3.3072699e-18 0.10694512 2.8275896e-18
3.3072699e-18 0.10694512 3.3325163e-18
-5.4327825e-19 -0.036330655 -2.1896386e-19
-5.4327825e-19 -0.036330655 -3.0159173e-19
-5.4327825e-19 -0.036330655 -3.842196e-19
-5.4327825e-19 -0.036330655 -4.6684747e-19
-5.4327825e-19 -0.036330655 -5.4947534e-19
7.3135626e-20 -0.089456067 2.991912e-20
7.3135626e-20 -0.089456067 4.1000275e-20
7.3135626e-20 -0.089456067 5.2081431e-20
7.3135626e-20 -0.089456067 6.3162586e-20
7.3135626e-20 -0.089456067 7.4243742e-20
VECTORS q double
1 -1.9656475e-12 2.4316989e-27
1 -1.9656475e-12 3.4043497e-27
1 -1.9656475e-12 4.3769783e-27
1 -1.9656475e-12 5.3497056e-27
1 -1.9656475e-12 6.3225512e-27
1 -5.2657063e-13 2.700325e-28
1 -5.2657063e-13 3.7598241e-28
1 -5.2657063e-13 4.8179754e-28
1 -5.2657063e-13 5.8779223e-28
1 -5.2657063e-13 6.9368801e-28
1 -1.6793274e-12 1.9095795e-27
1 -1.6793274e-12 2.6440239e-27
1 -1.6793274e-12 3.3784373e-27
1 -1.6793274e-12 4.1129714e-27
1 -1.6793274e-12 4.8476655e-27
1 5.1820703e-13 1.0813658e-28
1 5.1820703e-13 1.4886554e-28
1 5.1820703e-13 1.8977188e-28
1 5.1820703e-13 2.306033e-28
1 5.1820703e-13 2.7133199e-28
1 8.1823607e-14 -2.4984888e-30
1 8.1823607e-14 -3.4869229e-30
1 8.1823607e-14 -4.3666347e-30
1 8.1823607e-14 -5.3403203e-30
1 8.1823607e-14 -6.2848195e-30
1 -2.7519066e-12 3.4044024e-27
1 -2.7519066e-12 4.7661298e-27
1 -2.7519066e-12 6.1282126e-27
1 -2.7519066e-12 7.4898721e-27
1 -2.7519066e-12 8.8518504e-27
1 -7.3511345e-13 3.7693863e-28
1 -7.3511345e-13 5.2484494e-28
1 -7.3511345e-13 6.7258063e-28
1 -7.3511345e-13 8.2050295e-28
1 -7.3511345e-13 9.6833292e-28
1 -2.3378871e-12 2.6585683e-27
1 -2.3378871e-12 3.6811449e-27
1 -2.3378871e-12 4.7035703e-27
1 -2.3378871e-12 5.7261726e-27
1 -2.3378871e-12 6.7488731e-27
1 7.1945248e-13 1.5020906e-28
1 7.1945248e-13 2.0679058e-28
1 7.1945248e-13 2.6362438e-28
1 7.1945248e-13 3.2033565e-28
1 7.1945248e-13 3.7689133e-28
1 1.1329423e-13 -3.4758725e-30
1 1.1329423e-13 -4.8481214e-30
1 1.1329423e-13 -6.0628912e-30
1 1.1329423e-13 -7.4209645e-30
1 1.1329423e-13 -8.7392326e-30
1 -3.5381656e-12 4.3771372e-27
1 -3.5381656e-12 6.127542e-27
1 -3.5381656e-12 7.8786995e-27
1 -3.5381656e-12 9.6296522e-27
1 -3.5381656e-12 1.1380735e-26
1 -9.4365627e-13 4.8390849e-28
1 -9.4365627e-13 6.7378432e-28
1 -9.4365627e-13 8.6340658e-28
1 -9.4365627e-13 1.0533377e-27
1 -9.4365627e-13 1.2431099e-27
1 -2.9964468e-12 3.407529e-27
1 -2.9964468e-12 4.7181704e-27
1 -2.9964468e-12 6.0285997e-27
1 -2.9964468e-12 7.3394079e-27
1 -2.9964468e-12 8.6503451e-27
1 9.2069792e-13 1.9215382e-28
1 9.2069792e-13 2.6453118e-28
1 9.2069792e-13 3.3721819e-28
1 9.2069792e-13 4.0978069e-28
1 9.2069792e-13 4.821466e-28
1 1.4476484e-13 -4.405617e-30
1 1.4476484e-13 -6.1464626e-30
1 1.4476484e-13 -7.695242e-30
1 1.4476484e-13 -9.41643e-30
1 1.4476484e-13 -1.1080992e-29
1 -4.3244246e-12 5.3497643e-27
1 -4.3244246e-12 7.4894097e-27
1 -4.3244246e-12 9.6294104e-27
1 -4.3244246e-12 1.1769423e-26
1 -4.3244246e-12 1.3909676e-26
1 -1.1521991e-12 5.9077686e-28
1 -1.1521991e-12 8.225837e-28
1 -1.1521991e-12 1.054086e-27
1 -1.1521991e-12 1.2859549e-27
1 -1.1521991e-12 1.5176565e-27
1 -3.6550066e-12 4.1567272e-27
1 -3.6550066e-12 5.7555092e-27
1 -3.6550066e-12 7.3540465e-27
1 -3.6550066e-12 8.9528673e-27
1 -3.6550066e-12 1.0552187e-26
1 1.1219434e-12 2.3423985e-28
1 1.1219434e-12 3.2246469e-28
1 1.1219434e-12 4.1108138e-28
1 1.1219434e-12 4.9952273e-28
1 1.1219434e-12 5.8773528e-28
1 1.7623546e-13 -5.3806328e-30
1 1.7623546e-13 -7.5068743e-30
1 1.7623546e-13 -9.3946857e-30
1 1.7623546e-13 -1.1496898e-29
1 1.7623546e-13 -1.3526813e-29
1 -5.1106836e-12 6.3222838e-27
1 -5.1106836e-12 8.8508759e-27
1 -5.1106836e-12 1.1379925e-26
1 -5.1106836e-12 1.3908976e-26
1 -5.1106836e-12 1.643835e-26
1 -1.3607419e-12 6.9774385e-28
1 -1.3607419e-12 9.7151331e-28
1 -1.3607419e-12 1.2449369e-27
1 -1.3607419e-12 1.5188069e-27
1 -1.3607419e-12 1.7924528e-27
1 -4.3135663e-12 4.9048567e-27
1 -4.3135663e-12 6.7914173e-27
1 -4.3135663e-12 8.6776508e-27
1 -4.3135663e-12 1.0564847e-26
1 -4.3135663e-12 1.2451464e-26
1 1.3231888e-12 2.7625658e-28
1 1.3231888e-12 3.8034051e-28
1 1.3231888e-12 4.8482453e-28
1 1.3231888e-12 5.8913656e-28
1 1.3231888e-12 6.9319473e-28
1 2.0770608e-13 -6.2889849e-30
1 2.0770608e-13 -8.7722886e-30
1 2.0770608e-13 -1.0984378e-29
1 2.0770608e-13 -1.3438811e-29
1 2.0770608e-13 -1.5816305e-29
