# vtk DataFile Version 4.0
hesp visualization file
ASCII
DATASET UNSTRUCTURED_GRID
POINTS 125 double
0.5 0.21539531 0.5
0.5 0.21539531 0.7
0.5 0.21539531 0.9
0.5 0.21539531 1.1
0.5 0.21539531 1.3
0.505 0.29449108 0.51
0.505 0.29449108 0.71
0.505 0.29449108 0.91
0.505 0.29449108 1.11
0.505 0.29449108 1.31
0.51 0.26528863 0.52
0.51 0.26528863 0.72
0.51 0.26528863 0.92
0.51 0.26528863 1.12
0.51 0.26528863 1.32
0.515 0.24996061 0.53
0.515 0.24996061 0.73
0.515 0.24996061 0.93
0.515 0.24996061 1.13
0.515 0.24996061 1.33
0.52 0.2125142 0.54
0.52 0.2125142 0.74
0.52 0.2125142 0.94
0.52 0.2125142 1.14
0.52 0.2125142 1.34
0.7 0.21539531 0.5
0.7 0.21539531 0.7
0.7 0.21539531 0.9
0.7 0.21539531 1.1
0.7 0.21539531 1.3
0.705 0.29449108 0.51
0.705 0.29449108 0.71
0.705 0.29449108 0.91
0.705 0.29449108 1.11
0.705 0.29449108 1.31
0.71 0.26528863 0.52
0.71 0.26528863 0.72
0.71 0.26528863 0.92
0.71 0.26528863 1.12
0.71 0.26528863 1.32
0.715 0.24996061 0.53
0.715 0.24996061 0.73
0.715 0.24996061 0.93
0.715 0.24996061 1.13
0.715 0.24996061 1.33
0.72 0.2125142 0.54
0.72 0.2125142 0.74
0.72 0.2125142 0.94
0.72 0.2125142 1.14
0.72 0.2125142 1.34
0.9 0.21539531 0.5
0.9 0.21539531 0.7
0.9 0.21539531 0.9
0.9 0.21539531 1.1
0.9 0.21539531 1.3
0.905 0.29449108 0.51
0.905 0.29449108 0.71
0.905 0.29449108 0.91
0.905 0.29449108 1.11
0.905 0.29449108 1.31
0.91 0.26528863 0.52
0.91 0.26528863 0.72
0.91 0.26528863 0.92
0.91 0.26528863 1.12
0.91 0.26528863 1.32
0.915 0.24996061 0.53
0.915 0.24996061 0.73
0.915 0.24996061 0.93
0.915 0.24996061 1.13
0.915 0.24996061 1.33
0.92 0.2125142 0.54
0.92 0.2125142 0.74
0.92 0.2125142 0.94
0.92 0.2125142 1.14
0.92 0.2125142 1.34
1.1 0.21539531 0.5
1.1 0.21539531 0.7
1.1 0.21539531 0.9
1.1 0.21539531 1.1
1.1 0.21539531 1.3
1.105 0.29449108 0.51
1.105 0.29449108 0.71
1.105 0.29449108 0.91
1.105 0.29449108 1.11
1.105 0.29449108 1.31
1.11 0.26528863 0.52
1.11 0.26528863 0.72
1.11 0.26528863 0.92
1.11 0.26528863 1.12
1.11 0.26528863 1.32
1.115 0.24996061 0.53
1.115 0.24996061 0.73
1.115 0.24996061 0.93
1.115 0.24996061 1.13
1.115 0.24996061 1.33
1.12 0.2125142 0.54
1.12 0.2125142 0.74
1.12 0.2125142 0.94
1.12 0.2125142 1.14
1.12 0.2125142 1.34
1.3 0.21539531 0.5
1.3 0.21539531 0.7
1.3 0.21539531 0.9
1.3 0.21539531 1.1
1.3 0.21539531 1.3
1.305 0.29449108 0.51
1.305 0.29449108 0.71
1.305 0.29449108 0.91
1.305 0.29449108 1.11
1.305 0.29449108 1.31
1.31 0.26528863 0.52
1.31 0.26528863 0.72
1.31 0.26528863 0.92
1.31 0.26528863 1.12
1.31 0.26528863 1.32
1.315 0.24996061 0.53
1.315 0.24996061 0.73
1.315 0.24996061 0.93
1.315 0.24996061 1.13
1.315 0.24996061 1.33
1.32 0.2125142 0.54
1.32 0.2125142 0.74
1.32 0.2125142 0.94
1.32 0.2125142 1.14
1.32 0.2125142 1.34
CELLS 0 0
CELL_TYPES 0
POINT_DATA 125
SCALARS m double
LOOKUP_TABLE default
1
1
1
1
1
1
1
1
1
1
1
1
1
1
1
1
1
1
1
1
1
1
1
1
1
1
1
1
1
1
1
1
1
1
1
1
1
1
1
1
1
1
1
1
1
1
1
1
1
1
1
1
1
1
1
1
1
1
1
1
1
1
1
1
1
1
1
1
1
1
1
1
1
1
1
1
1
1
1
1
1
1
1
1
1
1
1
1
1
1
1
1
1
1
1
1
1
1
1
1
1
1
1
1
1
1
1
1
1
1
1
1
1
1
1
1
1
1
1
1
1
1
1
1
1
SCALARS r double
LOOKUP_TABLE default
0.1
0.1
0.1
0.1
0.1
0.1
0.1
0.1
0.1
0.1
0.1
0.1
0.1
0.1
0.1
0.1
0.1
0.1
0.1
0.1
0.1
0.1
0.1
0.1
0.1
0.1
0.1
0.1
0.1
0.1
0.1
0.1
0.1
0.1
0.1
0.1
0.1
0.1
0.1
0.1
0.1
0.1
0.1
0.1
0.1
0.1
0.1
0.1
0.1
0.1
0.1
0.1
0.1
0.1
0.1
0.1
0.1
0.1
0.1
0.1
0.1
0.1
0.1
0.1
0.1
0.1
0.1
0.1
0.1
0.1
0.1
0.1
0.1
0.1
0.1
0.1
0.1
0.1
0.1
0.1
0.1
0.1
0.1
0.1
0.1
0.1
0.1
0.1
0.1
0.1
0.1
0.1
0.1
0.1
0.1
0.1
0.1
0.1
0.1
0.1
0.1
0.1
0.1
0.1
0.1
0.1
0.1
0.1
0.1
0.1
0.1
0.1
0.1
0.1
0.1
0.1
0.1
0.1
0.1
0.1
0.1
0.1
0.1
0.1
0.1
VECTORS v double
1.4039118e-18 0.32458768 1.4039118e-18
1.4039118e-18 0.32458768 1.9654765e-18
1.4039118e-18 0.32458768 2.5270413e-18
1.4039118e-18 0.32458768 3.088606e-18
1.4039118e-18 0.32458768 3.6501707e-18
5.8569104e-19 0.37604569 5.9148996e-19
5.8569104e-19 0.37604569 8.2344681e-19
5.8569104e-19 0.37604569 1.0554037e-18
5.8569104e-19 0.37604569 1.2873605e-18
5.8569104e-19 0.37604569 1.5193173e-18
1.2875631e-18 -0.043054882 1.3128094e-18
1.2875631e-18 -0.043054882 1.8177361e-18
1.2875631e-18 -0.043054882 2.3226629e-18
1.2875631e-18 -0.043054882 2.8275896e-18
1.2875631e-18 -0.043054882 3.3325163e-18
-2.1276677e-19 -0.18633066 -2.1896386e-19
-2.1276677e-19 -0.18633066 -3.0159173e-19
-2.1276677e-19 -0.18633066 -3.842196e-19
-2.1276677e-19 -0.18633066 -4.6684747e-19
-2.1276677e-19 -0.18633066 -5.4947534e-19
4.6747195e-20 0.41741095 4.8545164e-20
4.6747195e-20 0.41741095 6.6524855e-20
4.6747195e-20 0.41741095 8.4504545e-20
4.6747195e-20 0.41741095 1.0248424e-19
4.6747195e-20 0.41741095 1.2046393e-19
1.9654765e-18 0.32458768 1.4039118e-18
1.9654765e-18 0.32458768 1.9654765e-18
1.9654765e-18 0.32458768 2.5270413e-18
1.9654765e-18 0.32458768 3.088606e-18
1.9654765e-18 0.32458768 3.6501707e-18
8.1764789e-19 0.37604569 5.9148996e-19
8.1764789e-19 0.37604569 8.2344681e-19
8.1764789e-19 0.37604569 1.0554037e-18
8.1764789e-19 0.37604569 1.2873605e-18
8.1764789e-19 0.37604569 1.5193173e-18
1.7924898e-18 -0.043054882 1.3128094e-18
1.7924898e-18 -0.043054882 1.8177361e-18
1.7924898e-18 -0.043054882 2.3226629e-18
1.7924898e-18 -0.043054882 2.8275896e-18
1.7924898e-18 -0.043054882 3.3325163e-18
-2.9539464e-19 -0.18633066 -2.1896386e-19
-2.9539464e-19 -0.18633066 -3.0159173e-19
-2.9539464e-19 -0.18633066 -3.842196e-19
-2.9539464e-19 -0.18633066 -4.6684747e-19
-2.9539464e-19 -0.18633066 -5.4947534e-19
6.4726886e-20 0.41741095 4.8545164e-20
6.4726886e-20 0.41741095 6.6524855e-20
6.4726886e-20 0.41741095 8.4504545e-20
6.4726886e-20 0.41741095 1.0248424e-19
6.4726886e-20 0.41741095 1.2046393e-19
2.5270413e-18 0.32458768 1.4039118e-18
2.5270413e-18 0.32458768 1.9654765e-18
2.5270413e-18 0.32458768 2.5270413e-18
2.5270413e-18 0.32458768 3.088606e-18
2.5270413e-18 0.32458768 3.6501707e-18
1.0496047e-18 0.37604569 5.9148996e-19
1.0496047e-18 0.37604569 8.2344681e-19
1.0496047e-18 0.37604569 1.0554037e-18
1.0496047e-18 0.37604569 1.2873605e-18
1.0496047e-18 0.37604569 1.5193173e-18
2.2974165e-18 -0.043054882 1.3128094e-18
2.2974165e-18 -0.043054882 1.8177361e-18
2.2974165e-18 -0.043054882 2.3226629e-18
2.2974165e-18 -0.043054882 2.8275896e-18
2.2974165e-18 -0.043054882 3.3325163e-18
-3.7802251e-19 -0.18633066 -2.1896386e-19
-3.7802251e-19 -0.18633066 -3.0159173e-19
-3.7802251e-19 -0.18633066 -3.842196e-19
-3.7802251e-19 -0.18633066 -4.6684747e-19
-3.7802251e-19 -0.18633066 -5.4947534e-19
8.2706576e-20 0.41741095 4.8545164e-20
8.2706576e-20 0.41741095 6.6524855e-20
8.2706576e-20 0.41741095 8.4504545e-20
8.2706576e-20 0.41741095 1.0248424e-19
8.2706576e-20 0.41741095 1.2046393e-19
3.088606e-18 0.32458768 1.4039118e-18
3.088606e-18 0.32458768 1.9654765e-18
3.088606e-18 0.32458768 2.5270413e-18
3.088606e-18 0.32458768 3.088606e-18
3.088606e-18 0.32458768 3.6501707e-18
1.2815616e-18 0.37604569 5.9148996e-19
1.2815616e-18 0.37604569 8.2344681e-19
1.2815616e-18 0.37604569 1.0554037e-18
1.2815616e-18 0.37604569 1.2873605e-18
1.2815616e-18 0.37604569 1.5193173e-18
2.8023432e-18 -0.043054882 1.3128094e-18
2.8023432e-18 -0.043054882 1.8177361e-18
2.8023432e-18 -0.043054882 2.3226629e-18
2.8023432e-18 -0.043054882 2.8275896e-18
2.8023432e-18 -0.043054882 3.3325163e-18
-4.6065038e-19 -0.18633066 -2.1896386e-19
-4.6065038e-19 -0.18633066 -3.0159173e-19
-4.6065038e-19 -0.18633066 -3.842196e-19
-4.6065038e-19 -0.18633066 -4.6684747e-19
-4.6065038e-19 -0.18633066 -5.4947534e-19
1.0068627e-19 0.41741095 4.8545164e-20
1.0068627e-19 0.41741095 6.6524855e-20
1.0068627e-19 0.41741095 8.4504545e-20
1.0068627e-19 0.41741095 1.0248424e-19
1.0068627e-19 0.41741095 1.2046393e-19
3.6501707e-18 0.32458768 1.4039118e-18
3.6501707e-18 0.32458768 1.9654765e-18
3.6501707e-18 0.32458768 2.5270413e-18
3.6501707e-18 0.32458768 3.088606e-18
3.6501707e-18 0.32458768 3.6501707e-18
1.5135184e-18 0.37604569 5.9148996e-19
1.5135184e-18 0.37604569 8.2344681e-19
1.5135184e-18 0.37604569 1.0554037e-18
1.5135184e-18 0.37604569 1.2873605e-18
1.5135184e-18 0.37604569 1.5193173e-18
3.3072699e-18 -0.043054882 1.3128094e-18
3.3072699e-18 -0.043054882 1.8177361e-18
3.3072699e-18 -0.043054882 2.3226629e-18
3.3072699e-18 -0.043054882 2.8275896e-18
3.3072699e-18 -0.043054882 3.3325163e-18
-5.4327825e-19 -0.18633066 -2.1896386e-19
-5.4327825e-19 -0.18633066 -3.0159173e-19
-5.4327825e-19 -0.18633066 -3.842196e-19
-5.4327825e-19 -0.18633066 -4.6684747e-19
-5.4327825e-19 -0.18633066 -5.4947534e-19
1.1866596e-19 0.41741095 4.8545164e-20
1.1866596e-19 0.41741095 6.6524855e-20
1.1866596e-19 0.41741095 8.4504545e-20
1.1866596e-19 0.41741095 1.0248424e-19
1.1866596e-19 0.41741095 1.2046393e-19
VECTORS q double
1 -2.002976e-12 2.5070704e-27
1 -2.002976e-12 3.5098687e-27
1 -2.002976e-12 4.5126422e-27
1 -2.002976e-12 5.5155202e-27
1 -2.002976e-12 6.5185186e-27
1 -5.4193373e-13 2.8259884e-28
1 -5.4193373e-13 3.9347953e-28
1 -5.4193373e-13 5.0421926e-28
1 -5.4193373e-13 6.1514533e-28
1 -5.4193373e-13 7.2596911e-28
1 -1.7129952e-12 1.9721122e-27
1 -1.7129952e-12 2.7306075e-27
1 -1.7129952e-12 3.4890747e-27
1 -1.7129952e-12 4.2476603e-27
1 -1.7129952e-12 5.0064072e-27
1 5.2428233e-13 1.0907336e-28
1 5.2428233e-13 1.5015494e-28
1 5.2428233e-13 1.9141597e-28
1 5.2428233e-13 2.3260146e-28
1 5.2428233e-13 2.7368282e-28
1 8.0884449e-14 -2.7581823e-30
1 8.0884449e-14 -3.8438708e-30
1 8.0884449e-14 -4.818998e-30
1 8.0884449e-14 -5.8895528e-30
1 8.0884449e-14 -6.9306418e-30
1 -2.8041664e-12 3.5099233e-27
1 -2.8041664e-12 4.913858e-27
1 -2.8041664e-12 6.3181566e-27
1 -2.8041664e-12 7.7220227e-27
1 -2.8041664e-12 9.1262155e-27
1 -7.5656095e-13 3.9447993e-28
1 -7.5656095e-13 5.492693e-28
1 -7.5656095e-13 7.0388103e-28
1 -7.5656095e-13 8.5868532e-28
1 -7.5656095e-13 1.0133945e-27
1 -2.384758e-12 2.7456287e-27
1 -2.384758e-12 3.8016908e-27
1 -2.384758e-12 4.8576033e-27
1 -2.384758e-12 5.913691e-27
1 -2.384758e-12 6.9698749e-27
1 7.2788711e-13 1.5151197e-28
1 7.2788711e-13 2.0858401e-28
1 7.2788711e-13 2.659115e-28
1 7.2788711e-13 3.2311491e-28
1 7.2788711e-13 3.8015988e-28
1 1.1199385e-13 -3.8357915e-30
1 1.1199385e-13 -5.342812e-30
1 1.1199385e-13 -6.6896562e-30
1 1.1199385e-13 -8.1821433e-30
1 1.1199385e-13 -9.6343461e-30
1 -3.6053568e-12 4.5128103e-27
1 -3.6053568e-12 6.31747e-27
1 -3.6053568e-12 8.1229026e-27
1 -3.6053568e-12 9.9281288e-27
1 -3.6053568e-12 1.1733487e-26
1 -9.7118817e-13 5.0642777e-28
1 -9.7118817e-13 7.0514006e-28
1 -9.7118817e-13 9.0358734e-28
1 -9.7118817e-13 1.1023556e-27
1 -9.7118817e-13 1.3009588e-27
1 -3.0565208e-12 3.5191124e-27
1 -3.0565208e-12 4.8726713e-27
1 -3.0565208e-12 6.2260206e-27
1 -3.0565208e-12 7.5797477e-27
1 -3.0565208e-12 8.9336034e-27
1 9.314919e-13 1.9381921e-28
1 9.314919e-13 2.6682349e-28
1 9.314919e-13 3.4014103e-28
1 9.314919e-13 4.1333305e-28
1 9.314919e-13 4.8632585e-28
1 1.4310326e-13 -4.8646447e-30
1 1.4310326e-13 -6.77735e-30
1 1.4310326e-13 -8.4947084e-30
1 1.4310326e-13 -1.0387274e-29
1 1.4310326e-13 -1.2222594e-29
1 -4.4065472e-12 5.5155838e-27
1 -4.4065472e-12 7.7215472e-27
1 -4.4065472e-12 9.9278757e-27
1 -4.4065472e-12 1.213422e-26
1 -4.4065472e-12 1.4340811e-26
1 -1.1858154e-12 6.1827069e-28
1 -1.1858154e-12 8.6086583e-28
1 -1.1858154e-12 1.1031429e-27
1 -1.1858154e-12 1.3458005e-27
1 -1.1858154e-12 1.5882843e-27
1 -3.7282836e-12 4.292844e-27
1 -3.7282836e-12 5.9439788e-27
1 -3.7282836e-12 7.5948719e-27
1 -3.7282836e-12 9.2460428e-27
1 -3.7282836e-12 1.0897722e-26
1 1.1350967e-12 2.3627129e-28
1 1.1350967e-12 3.2526083e-28
1 1.1350967e-12 4.1464712e-28
1 1.1350967e-12 5.0385603e-28
1 1.1350967e-12 5.9283297e-28
1 1.7421266e-13 -5.9399037e-30
1 1.7421266e-13 -8.2755212e-30
1 1.7421266e-13 -1.0368742e-29
1 1.7421266e-13 -1.2679741e-29
1 1.7421266e-13 -1.4917612e-29
1 -5.2077376e-12 6.5182477e-27
1 -5.2077376e-12 9.1252139e-27
1 -5.2077376e-12 1.1732648e-26
1 -5.2077376e-12 1.434009e-26
1 -5.2077376e-12 1.6947861e-26
1 -1.4004426e-12 7.3021386e-28
1 -1.4004426e-12 1.0167231e-27
1 -1.4004426e-12 1.3028725e-27
1 -1.4004426e-12 1.5894842e-27
1 -1.4004426e-12 1.8758639e-27
1 -4.4000464e-12 5.0654723e-27
1 -4.4000464e-12 7.0138091e-27
1 -4.4000464e-12 8.9618223e-27
1 -4.4000464e-12 1.0910809e-26
1 -4.4000464e-12 1.2859192e-26
1 1.3387015e-12 2.7865263e-28
1 1.3387015e-12 3.8363879e-28
1 1.3387015e-12 4.8902983e-28
1 1.3387015e-12 5.9424745e-28
1 1.3387015e-12 6.9920775e-28
1 2.0532206e-13 -6.9472865e-30
1 2.0532206e-13 -9.6770745e-30
1 2.0532206e-13 -1.2130903e-29
1 2.0532206e-13 -1.4831041e-29
1 2.0532206e-13 -1.745348e-29
