# vtk DataFile Version 4.0
hesp visualization file
ASCII
DATASET UNSTRUCTURED_GRID
POINTS 125 double
0.5 0.2551869 0.5
0.5 0.2551869 0.7
0.5 0.2551869 0.9
0.5 0.2551869 1.1
0.5 0.2551869 1.3
0.505 0.25582545 0.51
0.505 0.25582545 0.71
0.505 0.25582545 0.91
0.505 0.25582545 1.11
0.505 0.25582545 1.31
0.51 0.2150966 0.52
0.51 0.2150966 0.72
0.51 0.2150966 0.92
0.51 0.2150966 1.12
0.51 0.2150966 1.32
0.515 0.24968034 0.53
0.515 0.24968034 0.73
0.515 0.24968034 0.93
0.515 0.24968034 1.13
0.515 0.24968034 1.33
0.52 0.20422429 0.54
0.52 0.20422429 0.74
0.52 0.20422429 0.94
0.52 0.20422429 1.14
0.52 0.20422429 1.34
0.7 0.2551869 0.5
0.7 0.2551869 0.7
0.7 0.2551869 0.9
0.7 0.2551869 1.1
0.7 0.2551869 1.3
0.705 0.25582545 0.51
0.705 0.25582545 0.71
0.705 0.25582545 0.91
0.705 0.25582545 1.11
0.705 0.25582545 1.31
0.71 0.2150966 0.52
0.71 0.2150966 0.72
0.71 0.2150966 0.92
0.71 0.2150966 1.12
0.71 0.2150966 1.32
0.715 0.24968034 0.53
0.715 0.24968034 0.73
0.715 0.24968034 0.93
0.715 0.24968034 1.13
0.715 0.24968034 1.33
0.72 0.20422429 0.54
0.72 0.20422429 0.74
0.72 0.20422429 0.94
0.72 0.20422429 1.14
0.72 0.20422429 1.34
0.9 0.2551869 0.5
0.9 0.2551869 0.7
0.9 0.2551869 0.9
0.9 0.2551869 1.1
0.9 0.2551869 1.3
0.905 0.25582545 0.51
0.905 0.25582545 0.71
0.905 0.25582545 0.91
0.905 0.25582545 1.11
0.905 0.25582545 1.31
0.91 0.2150966 0.52
0.91 0.2150966 0.72
0.91 0.2150966 0.92
0.91 0.2150966 1.12
0.91 0.2150966 1.32
0.915 0.24968034 0.53
0.915 0.24968034 0.73
0.915 0.24968034 0.93
0.915 0.24968034 1.13
0.915 0.24968034 1.33
0.92 0.20422429 0.54
0.92 0.20422429 0.74
0.92 0.20422429 0.94
0.92 0.20422429 1.14
0.92 0.20422429 1.34
1.1 0.2551869 0.5
1.1 0.2551869 0.7
1.1 0.2551869 0.9
1.1 0.2551869 1.1
1.1 0.2551869 1.3
1.105 0.25582545 0.51
1.105 0.25582545 0.71
1.105 0.25582545 0.91
1.105 0.25582545 1.11
1.105 0.25582545 1.31
1.11 0.2150966 0.52
1.11 0.2150966 0.72
1.11 0.2150966 0.92
1.11 0.2150966 1.12
1.11 0.2150966 1.32
1.115 0.24968034 0.53
1.115 0.24968034 0.73
1.115 0.24968034 0.93
1.115 0.24968034 1.13
1.115 0.24968034 1.33
1.12 0.20422429 0.54
1.12 0.20422429 0.74
1.12 0.20422429 0.94
1.12 0.20422429 1.14
1.12 0.20422429 1.34
1.3 0.2551869 0.5
1.3 0.2551869 0.7
1.3 0.2551869 0.9
1.3 0.2551869 1.1
1.3 0.2551869 1.3
1.305 0.25582545 0.51
1.305 0.25582545 0.71
1.305 0.25582545 0.91
1.305 0.25582545 1.11
1.305 0.25582545 1.31
1.31 0.2150966 0.52
1.31 0.2150966 0.72
1.31 0.2150966 0.92
1.31 0.2150966 1.12
1.31 0.2150966 1.32
1.315 0.24968034 0.53
1.315 0.24968034 0.73
1.315 0.24968034 0.93
1.315 0.24968034 1.13
1.315 0.24968034 1.33
1.32 0.20422429 0.54
1.32 0.20422429 0.74
1.32 0.20422429 0.94
1.32 0.20422429 1.14
1.32 0.20422429 1.34
CELLS 0 0
CELL_TYPES 0
POINT_DATA 125
SCALARS m double
LOOKUP_TABLE default
1
1
1
1
1
1
1
1
1
1
1
1
1
1
1
1
1
1
1
1
1
1
1
1
1
1
1
1
1
1
1
1
1
1
1
1
1
1
1
1
1
1
1
1
1
1
1
1
1
1
1
1
1
1
1
1
1
1
1
1
1
1
1
1
1
1
1
1
1
1
1
1
1
1
1
1
1
1
1
1
1
1
1
1
1
1
1
1
1
1
1
1
1
1
1
1
1
1
1
1
1
1
1
1
1
1
1
1
1
1
1
1
1
1
1
1
1
1
1
1
1
1
1
1
1
SCALARS r double
LOOKUP_TABLE default
0.1
0.1
0.1
0.1
0.1
0.1
0.1
0.1
0.1
0.1
0.1
0.1
0.1
0.1
0.1
0.1
0.1
0.1
0.1
0.1
0.1
0.1
0.1
0.1
0.1
0.1
0.1
0.1
0.1
0.1
0.1
0.1
0.1
0.1
0.1
0.1
0.1
0.1
0.1
0.1
0.1
0.1
0.1
0.1
0.1
0.1
0.1
0.1
0.1
0.1
0.1
0.1
0.1
0.1
0.1
0.1
0.1
0.1
0.1
0.1
0.1
0.1
0.1
0.1
0.1
0.1
0.1
0.1
0.1
0.1
0.1
0.1
0.1
0.1
0.1
0.1
0.1
0.1
0.1
0.1
0.1
0.1
0.1
0.1
0.1
0.1
0.1
0.1
0.1
0.1
0.1
0.1
0.1
0.1
0.1
0.1
0.1
0.1
0.1
0.1
0.1
0.1
0.1
0.1
0.1
0.1
0.1
0.1
0.1
0.1
0.1
0.1
0.1
0.1
0.1
0.1
0.1
0.1
0.1
0.1
0.1
0.1
0.1
0.1
0.1
VECTORS v double
9.7123114e-19 -0.11978312 9.7123114e-19
9.7123114e-19 -0.11978312 1.3597236e-18
9.7123114e-19 -0.11978312 1.7482161e-18
9.7123114e-19 -0.11978312 2.1367085e-18
9.7123114e-19 -0.11978312 2.525201e-18
3.2000538e-19 0.095684352 3.2317375e-19
3.2000538e-19 0.095684352 4.4990856e-19
3.2000538e-19 0.095684352 5.7664336e-19
3.2000538e-19 0.095684352 7.0337817e-19
3.2000538e-19 0.095684352 8.3011297e-19
8.9636089e-19 0.0076494226 9.1393659e-19
8.9636089e-19 0.0076494226 1.2654507e-18
8.9636089e-19 0.0076494226 1.6169647e-18
8.9636089e-19 0.0076494226 1.9684788e-18
8.9636089e-19 0.0076494226 2.3199929e-18
-2.0480987e-19 0.17969526 -2.107752e-19
-2.0480987e-19 0.17969526 -2.9031302e-19
-2.0480987e-19 0.17969526 -3.6985083e-19
-2.0480987e-19 0.17969526 -4.4938864e-19
-2.0480987e-19 0.17969526 -5.2892645e-19
-2.2162774e-20 -0.56591993 -2.3015189e-20
-2.2162774e-20 -0.56591993 -3.1539333e-20
-2.2162774e-20 -0.56591993 -4.0063477e-20
-2.2162774e-20 -0.56591993 -4.8587621e-20
-2.2162774e-20 -0.56591993 -5.7111765e-20
1.3597236e-18 -0.11978312 9.7123114e-19
1.3597236e-18 -0.11978312 1.3597236e-18
1.3597236e-18 -0.11978312 1.7482161e-18
1.3597236e-18 -0.11978312 2.1367085e-18
1.3597236e-18 -0.11978312 2.525201e-18
4.4674019e-19 0.095684352 3.2317375e-19
4.4674019e-19 0.095684352 4.4990856e-19
4.4674019e-19 0.095684352 5.7664336e-19
4.4674019e-19 0.095684352 7.0337817e-19
4.4674019e-19 0.095684352 8.3011297e-19
1.247875e-18 0.0076494226 9.1393659e-19
1.247875e-18 0.0076494226 1.2654507e-18
1.247875e-18 0.0076494226 1.6169647e-18
1.247875e-18 0.0076494226 1.9684788e-18
1.247875e-18 0.0076494226 2.3199929e-18
-2.8434768e-19 0.17969526 -2.107752e-19
-2.8434768e-19 0.17969526 -2.9031302e-19
-2.8434768e-19 0.17969526 -3.6985083e-19
-2.8434768e-19 0.17969526 -4.4938864e-19
-2.8434768e-19 0.17969526 -5.2892645e-19
-3.0686918e-20 -0.56591993 -2.3015189e-20
-3.0686918e-20 -0.56591993 -3.1539333e-20
-3.0686918e-20 -0.56591993 -4.0063477e-20
-3.0686918e-20 -0.56591993 -4.8587621e-20
-3.0686918e-20 -0.56591993 -5.7111765e-20
1.7482161e-18 -0.11978312 9.7123114e-19
1.7482161e-18 -0.11978312 1.3597236e-18
1.7482161e-18 -0.11978312 1.7482161e-18
1.7482161e-18 -0.11978312 2.1367085e-18
1.7482161e-18 -0.11978312 2.525201e-18
5.7347499e-19 0.095684352 3.2317375e-19
5.7347499e-19 0.095684352 4.4990856e-19
5.7347499e-19 0.095684352 5.7664336e-19
5.7347499e-19 0.095684352 7.0337817e-19
5.7347499e-19 0.095684352 8.3011297e-19
1.599389e-18 0.0076494226 9.1393659e-19
1.599389e-18 0.0076494226 1.2654507e-18
1.599389e-18 0.0076494226 1.6169647e-18
1.599389e-18 0.0076494226 1.9684788e-18
1.599389e-18 0.0076494226 2.3199929e-18
-3.6388549e-19 0.17969526 -2.107752e-19
-3.6388549e-19 0.17969526 -2.9031302e-19
-3.6388549e-19 0.17969526 -3.6985083e-19
-3.6388549e-19 0.17969526 -4.4938864e-19
-3.6388549e-19 0.17969526 -5.2892645e-19
-3.9211062e-20 -0.56591993 -2.3015189e-20
-3.9211062e-20 -0.56591993 -3.1539333e-20
-3.9211062e-20 -0.56591993 -4.0063477e-20
-3.9211062e-20 -0.56591993 -4.8587621e-20
-3.9211062e-20 -0.56591993 -5.7111765e-20
2.1367085e-18 -0.11978312 9.7123114e-19
2.1367085e-18 -0.11978312 1.3597236e-18
2.1367085e-18 -0.11978312 1.7482161e-18
2.1367085e-18 -0.11978312 2.1367085e-18
2.1367085e-18 -0.11978312 2.525201e-18
7.002098e-19 0.095684352 3.2317375e-19
7.002098e-19 0.095684352 4.4990856e-19
7.002098e-19 0.095684352 5.7664336e-19
7.002098e-19 0.095684352 7.0337817e-19
7.002098e-19 0.095684352 8.3011297e-19
1.9509031e-18 0.0076494226 9.1393659e-19
1.9509031e-18 0.0076494226 1.2654507e-18
1.9509031e-18 0.0076494226 1.6169647e-18
1.9509031e-18 0.0076494226 1.9684788e-18
1.9509031e-18 0.0076494226 2.3199929e-18
-4.4342331e-19 0.17969526 -2.107752e-19
-4.4342331e-19 0.17969526 -2.9031302e-19
-4.4342331e-19 0.17969526 -3.6985083e-19
-4.4342331e-19 0.17969526 -4.4938864e-19
-4.4342331e-19 0.17969526 -5.2892645e-19
-4.7735206e-20 -0.56591993 -2.3015189e-20
-4.7735206e-20 -0.56591993 -3.1539333e-20
-4.7735206e-20 -0.56591993 -4.0063477e-20
-4.7735206e-20 -0.56591993 -4.8587621e-20
-4.7735206e-20 -0.56591993 -5.7111765e-20
2.525201e-18 -0.11978312 9.7123114e-19
2.525201e-18 -0.11978312 1.3597236e-18
2.525201e-18 -0.11978312 1.7482161e-18
2.525201e-18 -0.11978312 2.1367085e-18
2.525201e-18 -0.11978312 2.525201e-18
8.269446e-19 0.095684352 3.2317375e-19
8.269446e-19 0.095684352 4.4990856e-19
8.269446e-19 0.095684352 5.7664336e-19
8.269446e-19 0.095684352 7.0337817e-19
8.269446e-19 0.095684352 8.3011297e-19
2.3024172e-18 0.0076494226 9.1393659e-19
2.3024172e-18 0.0076494226 1.2654507e-18
2.3024172e-18 0.0076494226 1.6169647e-18
2.3024172e-18 0.0076494226 1.9684788e-18
2.3024172e-18 0.0076494226 2.3199929e-18
-5.2296112e-19 0.17969526 -2.107752e-19
-5.2296112e-19 0.17969526 -2.9031302e-19
-5.2296112e-19 0.17969526 -3.6985083e-19
-5.2296112e-19 0.17969526 -4.4938864e-19
-5.2296112e-19 0.17969526 -5.2892645e-19
-5.625935e-20 -0.56591993 -2.3015189e-20
-5.625935e-20 -0.56591993 -3.1539333e-20
-5.625935e-20 -0.56591993 -4.0063477e-20
-5.625935e-20 -0.56591993 -4.8587621e-20
-5.625935e-20 -0.56591993 -5.7111765e-20
VECTORS q double
1 -1.143126e-12 1.0242185e-27
1 -1.143126e-12 1.4338981e-27
1 -1.143126e-12 1.8435802e-27
1 -1.143126e-12 2.2532806e-27
1 -1.143126e-12 2.6630508e-27
1 -2.1513302e-13 6.4669182e-29
1 -2.1513302e-13 9.0044039e-29
1 -2.1513302e-13 1.1538169e-28
1 -2.1513302e-13 1.4078301e-28
1 -2.1513302e-13 1.6613814e-28
1 -9.4911362e-13 7.5248652e-28
1 -9.4911362e-13 1.0418958e-27
1 -9.4911362e-13 1.3312403e-27
1 -9.4911362e-13 1.6207083e-27
1 -9.4911362e-13 1.9103035e-27
1 3.5994173e-13 7.3333173e-29
1 3.5994173e-13 1.0095241e-28
1 3.5994173e-13 1.2869433e-28
1 3.5994173e-13 1.5638016e-28
1 3.5994173e-13 1.8399682e-28
1 8.1508728e-14 1.5365179e-30
1 8.1508728e-14 2.0672644e-30
1 8.1508728e-14 2.6629758e-30
1 8.1508728e-14 3.2024554e-30
1 8.1508728e-14 3.7601977e-30
1 -1.6003764e-12 1.433912e-27
1 -1.6003764e-12 2.0074668e-27
1 -1.6003764e-12 2.581171e-27
1 -1.6003764e-12 3.1546764e-27
1 -1.6003764e-12 3.7283407e-27
1 -3.0033422e-13 9.0268183e-29
1 -3.0033422e-13 1.2569398e-28
1 -3.0033422e-13 1.610646e-28
1 -3.0033422e-13 1.9651291e-28
1 -3.0033422e-13 2.3191091e-28
1 -1.321315e-12 1.0476149e-27
1 -1.321315e-12 1.4505664e-27
1 -1.321315e-12 1.8533809e-27
1 -1.321315e-12 2.2563521e-27
1 -1.321315e-12 2.6594527e-27
1 4.9972492e-13 1.0184301e-28
1 4.9972492e-13 1.4020393e-28
1 4.9972492e-13 1.7873608e-28
1 4.9972492e-13 2.1718498e-28
1 4.9972492e-13 2.555372e-28
1 1.1285824e-13 2.1198463e-30
1 1.1285824e-13 2.8534589e-30
1 1.1285824e-13 3.6804739e-30
1 1.1285824e-13 4.4242578e-30
1 1.1285824e-13 5.1901575e-30
1 -2.0576268e-12 1.8436084e-27
1 -2.0576268e-12 2.5808823e-27
1 -2.0576268e-12 3.3184686e-27
1 -2.0576268e-12 4.0559344e-27
1 -2.0576268e-12 4.7934888e-27
1 -3.8553542e-13 1.1588973e-28
1 -3.8553542e-13 1.613675e-28
1 -3.8553542e-13 2.0677156e-28
1 -3.8553542e-13 2.5228092e-28
1 -3.8553542e-13 2.9772641e-28
1 -1.6935165e-12 1.3427878e-27
1 -1.6935165e-12 1.8592676e-27
1 -1.6935165e-12 2.3755498e-27
1 -1.6935165e-12 2.8921422e-27
1 -1.6935165e-12 3.4088686e-27
1 6.3950812e-13 1.3029853e-28
1 6.3950812e-13 1.7937502e-28
1 6.3950812e-13 2.2866587e-28
1 6.3950812e-13 2.778636e-28
1 6.3950812e-13 3.2692744e-28
1 1.4420775e-13 2.7270188e-30
1 1.4420775e-13 3.6701392e-30
1 1.4420775e-13 4.7293511e-30
1 1.4420775e-13 5.684357e-30
1 1.4420775e-13 6.6747054e-30
1 -2.5148772e-12 2.253279e-27
1 -2.5148772e-12 3.1545197e-27
1 -2.5148772e-12 4.0558771e-27
1 -2.5148772e-12 4.9572185e-27
1 -2.5148772e-12 5.8586979e-27
1 -4.7073661e-13 1.4147257e-28
1 -4.7073661e-13 1.9698897e-28
1 -4.7073661e-13 2.5241515e-28
1 -4.7073661e-13 3.0797668e-28
1 -4.7073661e-13 3.6345479e-28
1 -2.0657179e-12 1.6380235e-27
1 -2.0657179e-12 2.2680476e-27
1 -2.0657179e-12 2.8978532e-27
1 -2.0657179e-12 3.5279615e-27
1 -2.0657179e-12 4.1583422e-27
1 7.7929131e-13 1.5882113e-28
1 7.7929131e-13 2.1863612e-28
1 7.7929131e-13 2.7871833e-28
1 7.7929131e-13 3.3868005e-28
1 7.7929131e-13 3.9848462e-28
1 1.7555726e-13 3.3111375e-30
1 1.7555726e-13 4.4561463e-30
1 1.7555726e-13 5.7448729e-30
1 1.7555726e-13 6.9036291e-30
1 1.7555726e-13 8.1080916e-30
1 -2.9721276e-12 2.6628878e-27
1 -2.9721276e-12 3.7279469e-27
1 -2.9721276e-12 4.7931706e-27
1 -2.9721276e-12 5.8583702e-27
1 -2.9721276e-12 6.923763e-27
1 -5.5593781e-13 1.6710338e-28
1 -5.5593781e-13 2.3267645e-28
1 -5.5593781e-13 2.9814446e-28
1 -5.5593781e-13 3.6377635e-28
1 -5.5593781e-13 4.2930125e-28
1 -2.4379193e-12 1.9328474e-27
1 -2.4379193e-12 2.6762827e-27
1 -2.4379193e-12 3.4194171e-27
1 -2.4379193e-12 4.163161e-27
1 -2.4379193e-12 4.9068176e-27
1 9.1907451e-13 1.8730715e-28
1 9.1907451e-13 2.5787754e-28
1 9.1907451e-13 3.287215e-28
1 9.1907451e-13 3.9943716e-28
1 9.1907451e-13 4.6998175e-28
1 2.0690677e-13 3.9344108e-30
1 2.0690677e-13 5.2980063e-30
1 2.0690677e-13 6.822771e-30
1 2.0690677e-13 8.2031405e-30
1 2.0690677e-13 9.6325301e-30
