# vtk DataFile Version 4.0
hesp visualization file
ASCII
DATASET UNSTRUCTURED_GRID
POINTS 125 double
0.5 0.3831254 0.5
0.5 0.3831254 0.7
0.5 0.3831254 0.9
0.5 0.3831254 1.1
0.5 0.3831254 1.3
0.505 0.36096978 0.51
0.505 0.36096978 0.71
0.505 0.36096978 0.91
0.505 0.36096978 1.11
0.505 0.36096978 1.31
0.51 0.19950038 0.52
0.51 0.19950038 0.72
0.51 0.19950038 0.92
0.51 0.19950038 1.12
0.51 0.19950038 1.32
0.515 0.4683644 0.53
0.515 0.4683644 0.73
0.515 0.4683644 0.93
0.515 0.4683644 1.13
0.515 0.4683644 1.33
0.52 0.49024518 0.54
0.52 0.49024518 0.74
0.52 0.49024518 0.94
0.52 0.49024518 1.14
0.52 0.49024518 1.34
0.7 0.3831254 0.5
0.7 0.3831254 0.7
0.7 0.3831254 0.9
0.7 0.3831254 1.1
0.7 0.3831254 1.3
0.705 0.36096978 0.51
0.705 0.36096978 0.71
0.705 0.36096978 0.91
0.705 0.36096978 1.11
0.705 0.36096978 1.31
0.71 0.19950038 0.52
0.71 0.19950038 0.72
0.71 0.19950038 0.92
0.71 0.19950038 1.12
0.71 0.19950038 1.32
0.715 0.4683644 0.53
0.715 0.4683644 0.73
0.715 0.4683644 0.93
0.715 0.4683644 1.13
0.715 0.4683644 1.33
0.72 0.49024518 0.54
0.72 0.49024518 0.74
0.72 0.49024518 0.94
0.72 0.49024518 1.14
0.72 0.49024518 1.34
0.9 0.3831254 0.5
0.9 0.3831254 0.7
0.9 0.3831254 0.9
0.9 0.3831254 1.1
0.9 0.3831254 1.3
0.905 0.36096978 0.51
0.905 0.36096978 0.71
0.905 0.36096978 0.91
0.905 0.36096978 1.11
0.905 0.36096978 1.31
0.91 0.19950038 0.52
0.91 0.19950038 0.72
0.91 0.19950038 0.92
0.91 0.19950038 1.12
0.91 0.19950038 1.32
0.915 0.4683644 0.53
0.915 0.4683644 0.73
0.915 0.4683644 0.93
0.915 0.4683644 1.13
0.915 0.4683644 1.33
0.92 0.49024518 0.54
0.92 0.49024518 0.74
0.92 0.49024518 0.94
0.92 0.49024518 1.14
0.92 0.49024518 1.34
1.1 0.3831254 0.5
1.1 0.3831254 0.7
1.1 0.3831254 0.9
1.1 0.3831254 1.1
1.1 0.3831254 1.3
1.105 0.36096978 0.51
1.105 0.36096978 0.71
1.105 0.36096978 0.91
1.105 0.36096978 1.11
1.105 0.36096978 1.31
1.11 0.19950038 0.52
1.11 0.19950038 0.72
1.11 0.19950038 0.92
1.11 0.19950038 1.12
1.11 0.19950038 1.32
1.115 0.4683644 0.53
1.115 0.4683644 0.73
1.115 0.4683644 0.93
1.115 0.4683644 1.13
1.115 0.4683644 1.33
1.12 0.49024518 0.54
1.12 0.49024518 0.74
1.12 0.49024518 0.94
1.12 0.49024518 1.14
1.12 0.49024518 1.34
1.3 0.3831254 0.5
1.3 0.3831254 0.7
1.3 0.3831254 0.9
1.3 0.3831254 1.1
1.3 0.3831254 1.3
1.305 0.36096978 0.51
1.305 0.36096978 0.71
1.305 0.36096978 0.91
1.305 0.36096978 1.11
1.305 0.36096978 1.31
1.31 0.19950038 0.52
1.31 0.19950038 0.72
1.31 0.19950038 0.92
1.31 0.19950038 1.12
1.31 0.19950038 1.32
1.315 0.4683644 0.53
1.315 0.4683644 0.73
1.315 0.4683644 0.93
1.315 0.4683644 1.13
1.315 0.4683644 1.33
1.32 0.49024518 0.54
1.32 0.49024518 0.74
1.32 0.49024518 0.94
1.32 0.49024518 1.14
1.32 0.49024518 1.34
CELLS 0 0
CELL_TYPES 0
POINT_DATA 125
SCALARS m double
LOOKUP_TABLE default
1
1
1
1
1
1
1
1
1
1
1
1
1
1
1
1
1
1
1
1
1
1
1
1
1
1
1
1
1
1
1
1
1
1
1
1
1
1
1
1
1
1
1
1
1
1
1
1
1
1
1
1
1
1
1
1
1
1
1
1
1
1
1
1
1
1
1
1
1
1
1
1
1
1
1
1
1
1
1
1
1
1
1
1
1
1
1
1
1
1
1
1
1
1
1
1
1
1
1
1
1
1
1
1
1
1
1
1
1
1
1
1
1
1
1
1
1
1
1
1
1
1
1
1
1
SCALARS r double
LOOKUP_TABLE default
0.1
0.1
0.1
0.1
0.1
0.1
0.1
0.1
0.1
0.1
0.1
0.1
0.1
0.1
0.1
0.1
0.1
0.1
0.1
0.1
0.1
0.1
0.1
0.1
0.1
0.1
0.1
0.1
0.1
0.1
0.1
0.1
0.1
0.1
0.1
0.1
0.1
0.1
0.1
0.1
0.1
0.1
0.1
0.1
0.1
0.1
0.1
0.1
0.1
0.1
0.1
0.1
0.1
0.1
0.1
0.1
0.1
0.1
0.1
0.1
0.1
0.1
0.1
0.1
0.1
0.1
0.1
0.1
0.1
0.1
0.1
0.1
0.1
0.1
0.1
0.1
0.1
0.1
0.1
0.1
0.1
0.1
0.1
0.1
0.1
0.1
0.1
0.1
0.1
0.1
0.1
0.1
0.1
0.1
0.1
0.1
0.1
0.1
0.1
0.1
0.1
0.1
0.1
0.1
0.1
0.1
0.1
0.1
0.1
0.1
0.1
0.1
0.1
0.1
0.1
0.1
0.1
0.1
0.1
0.1
0.1
0.1
0.1
0.1
0.1
VECTORS v double
1.6330824e-20 0.26153429 1.6330824e-20
1.6330824e-20 0.26153429 2.2863154e-20
1.6330824e-20 0.26153429 2.9395484e-20
1.6330824e-20 0.26153429 3.5927814e-20
1.6330824e-20 0.26153429 4.2460144e-20
0 -0.10264197 0
0 -0.10264197 0
0 -0.10264197 0
0 -0.10264197 0
0 -0.10264197 0
0 -0.40951346 0
0 -0.40951346 0
0 -0.40951346 0
0 -0.40951346 0
0 -0.40951346 0
0 -0.33447493 0
0 -0.33447493 0
0 -0.33447493 0
0 -0.33447493 0
0 -0.33447493 0
0 -0.20835232 0
0 -0.20835232 0
0 -0.20835232 0
0 -0.20835232 0
0 -0.20835232 0
2.2863154e-20 0.26153429 1.6330824e-20
2.2863154e-20 0.26153429 2.2863154e-20
2.2863154e-20 0.26153429 2.9395484e-20
2.2863154e-20 0.26153429 3.5927814e-20
2.2863154e-20 0.26153429 4.2460144e-20
0 -0.10264197 0
0 -0.10264197 0
0 -0.10264197 0
0 -0.10264197 0
0 -0.10264197 0
0 -0.40951346 0
0 -0.40951346 0
0 -0.40951346 0
0 -0.40951346 0
0 -0.40951346 0
0 -0.33447493 0
0 -0.33447493 0
0 -0.33447493 0
0 -0.33447493 0
0 -0.33447493 0
0 -0.20835232 0
0 -0.20835232 0
0 -0.20835232 0
0 -0.20835232 0
0 -0.20835232 0
2.9395484e-20 0.26153429 1.6330824e-20
2.9395484e-20 0.26153429 2.2863154e-20
2.9395484e-20 0.26153429 2.9395484e-20
2.9395484e-20 0.26153429 3.5927814e-20
2.9395484e-20 0.26153429 4.2460144e-20
0 -0.10264197 0
0 -0.10264197 0
0 -0.10264197 0
0 -0.10264197 0
0 -0.10264197 0
0 -0.40951346 0
0 -0.40951346 0
0 -0.40951346 0
0 -0.40951346 0
0 -0.40951346 0
0 -0.33447493 0
0 -0.33447493 0
0 -0.33447493 0
0 -0.33447493 0
0 -0.33447493 0
0 -0.20835232 0
0 -0.20835232 0
0 -0.20835232 0
0 -0.20835232 0
0 -0.20835232 0
3.5927814e-20 0.26153429 1.6330824e-20
3.5927814e-20 0.26153429 2.2863154e-20
3.5927814e-20 0.26153429 2.9395484e-20
3.5927814e-20 0.26153429 3.5927814e-20
3.5927814e-20 0.26153429 4.2460144e-20
0 -0.10264197 0
0 -0.10264197 0
0 -0.10264197 0
0 -0.10264197 0
0 -0.10264197 0
0 -0.40951346 0
0 -0.40951346 0
0 -0.40951346 0
0 -0.40951346 0
0 -0.40951346 0
0 -0.33447493 0
0 -0.33447493 0
0 -0.33447493 0
0 -0.33447493 0
0 -0.33447493 0
0 -0.20835232 0
0 -0.20835232 0
0 -0.20835232 0
0 -0.20835232 0
0 -0.20835232 0
4.2460144e-20 0.26153429 1.6330824e-20
4.2460144e-20 0.26153429 2.2863154e-20
4.2460144e-20 0.26153429 2.9395484e-20
4.2460144e-20 0.26153429 3.5927814e-20
4.2460144e-20 0.26153429 4.2460144e-20
0 -0.10264197 0
0 -0.10264197 0
0 -0.10264197 0
0 -0.10264197 0
0 -0.10264197 0
0 -0.40951346 0
0 -0.40951346 0
0 -0.40951346 0
0 -0.40951346 0
0 -0.40951346 0
0 -0.33447493 0
0 -0.33447493 0
0 -0.33447493 0
0 -0.33447493 0
0 -0.33447493 0
0 -0.20835232 0
0 -0.20835232 0
0 -0.20835232 0
0 -0.20835232 0
0 -0.20835232 0
VECTORS q double
1 -1.5374207e-16 5.1411798e-34
1 -1.5374207e-16 7.4682827e-34
1 -1.5374207e-16 8.4928809e-34
1 -1.5374207e-16 1.1515631e-33
1 -1.5374207e-16 1.2133472e-33
1 0 0
1 0 0
1 0 0
1 0 0
1 0 0
1 0 0
1 0 0
1 0 0
1 0 0
1 0 0
1 1.8739593e-15 3.1560384e-32
1 1.8739593e-15 4.3469963e-32
1 1.8739593e-15 5.5379542e-32
1 1.8739593e-15 6.728912e-32
1 1.8739593e-15 7.9198699e-32
1 0 0
1 0 0
1 0 0
1 0 0
1 0 0
1 -2.1523889e-16 7.1976517e-34
1 -2.1523889e-16 1.06453e-33
1 -2.1523889e-16 1.0926105e-33
1 -2.1523889e-16 1.5203215e-33
1 -2.1523889e-16 1.6219377e-33
1 0 0
1 0 0
1 0 0
1 0 0
1 0 0
1 0 0
1 0 0
1 0 0
1 0 0
1 0 0
1 2.6017105e-15 4.3816844e-32
1 2.6017105e-15 6.0351502e-32
1 2.6017105e-15 7.688616e-32
1 2.6017105e-15 9.3420818e-32
1 2.6017105e-15 1.0995548e-31
1 0 0
1 0 0
1 0 0
1 0 0
1 0 0
1 -2.7673572e-16 9.7596803e-34
1 -2.7673572e-16 1.4477133e-33
1 -2.7673572e-16 1.6378225e-33
1 -2.7673572e-16 2.232377e-33
1 -2.7673572e-16 2.3598623e-33
1 0 0
1 0 0
1 0 0
1 0 0
1 0 0
1 0 0
1 0 0
1 0 0
1 0 0
1 0 0
1 3.3294617e-15 5.6073303e-32
1 3.3294617e-15 7.7233041e-32
1 3.3294617e-15 9.8392778e-32
1 3.3294617e-15 1.1955251e-31
1 3.3294617e-15 1.4071225e-31
1 0 0
1 0 0
1 0 0
1 0 0
1 0 0
1 -3.3823255e-16 1.0805039e-33
1 -3.3823255e-16 1.5993036e-33
1 -3.3823255e-16 1.8257745e-33
1 -3.3823255e-16 2.5048389e-33
1 -3.3823255e-16 2.5527487e-33
1 0 0
1 0 0
1 0 0
1 0 0
1 0 0
1 0 0
1 0 0
1 0 0
1 0 0
1 0 0
1 4.0572129e-15 6.8329763e-32
1 4.0572129e-15 9.411458e-32
1 4.0572129e-15 1.198994e-31
1 4.0572129e-15 1.4568421e-31
1 4.0572129e-15 1.7146903e-31
1 0 0
1 0 0
1 0 0
1 0 0
1 0 0
1 -3.9972937e-16 1.4835589e-33
1 -3.9972937e-16 2.1587095e-33
1 -3.9972937e-16 2.3791716e-33
1 -3.9972937e-16 3.2876722e-33
1 -3.9972937e-16 3.6233776e-33
1 0 0
1 0 0
1 0 0
1 0 0
1 0 0
1 0 0
1 0 0
1 0 0
1 0 0
1 0 0
1 4.7849641e-15 8.0586223e-32
1 4.7849641e-15 1.1099612e-31
1 4.7849641e-15 1.4140601e-31
1 4.7849641e-15 1.7181591e-31
1 4.7849641e-15 2.022258e-31
1 0 0
1 0 0
1 0 0
1 0 0
1 0 0
