# vtk DataFile Version 4.0
hesp visualization file
ASCII
DATASET UNSTRUCTURED_GRID
POINTS 125 double
0.5 0.25088503 0.5
0.5 0.25088503 0.7
0.5 0.25088503 0.9
0.5 0.25088503 1.1
0.5 0.25088503 1.3
0.505 0.35622438 0.51
0.505 0.35622438 0.71
0.505 0.35622438 0.91
0.505 0.35622438 1.11
0.505 0.35622438 1.31
0.51 0.24330968 0.52
0.51 0.24330968 0.72
0.51 0.24330968 0.92
0.51 0.24330968 1.12
0.51 0.24330968 1.32
0.515 0.25904328 0.53
0.515 0.25904328 0.73
0.515 0.25904328 0.93
0.515 0.25904328 1.13
0.515 0.25904328 1.33
0.52 0.29534379 0.54
0.52 0.29534379 0.74
0.52 0.29534379 0.94
0.52 0.29534379 1.14
0.52 0.29534379 1.34
0.7 0.25088503 0.5
0.7 0.25088503 0.7
0.7 0.25088503 0.9
0.7 0.25088503 1.1
0.7 0.25088503 1.3
0.705 0.35622438 0.51
0.705 0.35622438 0.71
0.705 0.35622438 0.91
0.705 0.35622438 1.11
0.705 0.35622438 1.31
0.71 0.24330968 0.52
0.71 0.24330968 0.72
0.71 0.24330968 0.92
0.71 0.24330968 1.12
0.71 0.24330968 1.32
0.715 0.25904328 0.53
0.715 0.25904328 0.73
0.715 0.25904328 0.93
0.715 0.25904328 1.13
0.715 0.25904328 1.33
0.72 0.29534379 0.54
0.72 0.29534379 0.74
0.72 0.29534379 0.94
0.72 0.29534379 1.14
0.72 0.29534379 1.34
0.9 0.25088503 0.5
0.9 0.25088503 0.7
0.9 0.25088503 0.9
0.9 0.25088503 1.1
0.9 0.25088503 1.3
0.905 0.35622438 0.51
0.905 0.35622438 0.71
0.905 0.35622438 0.91
0.905 0.35622438 1.11
0.905 0.35622438 1.31
0.91 0.24330968 0.52
0.91 0.24330968 0.72
0.91 0.24330968 0.92
0.91 0.24330968 1.12
0.91 0.24330968 1.32
0.915 0.25904328 0.53
0.915 0.25904328 0.73
0.915 0.25904328 0.93
0.915 0.25904328 1.13
0.915 0.25904328 1.33
0.92 0.29534379 0.54
0.92 0.29534379 0.74
0.92 0.29534379 0.94
0.92 0.29534379 1.14
0.92 0.29534379 1.34
1.1 0.25088503 0.5
1.1 0.25088503 0.7
1.1 0.25088503 0.9
1.1 0.25088503 1.1
1.1 0.25088503 1.3
1.105 0.35622438 0.51
1.105 0.35622438 0.71
1.105 0.35622438 0.91
1.105 0.35622438 1.11
1.105 0.35622438 1.31
1.11 0.24330968 0.52
1.11 0.24330968 0.72
1.11 0.24330968 0.92
1.11 0.24330968 1.12
1.11 0.24330968 1.32
1.115 0.25904328 0.53
1.115 0.25904328 0.73
1.115 0.25904328 0.93
1.115 0.25904328 1.13
1.115 0.25904328 1.33
1.12 0.29534379 0.54
1.12 0.29534379 0.74
1.12 0.29534379 0.94
1.12 0.29534379 1.14
1.12 0.29534379 1.34
1.3 0.25088503 0.5
1.3 0.25088503 0.7
1.3 0.25088503 0.9
1.3 0.25088503 1.1
1.3 0.25088503 1.3
1.305 0.35622438 0.51
1.305 0.35622438 0.71
1.305 0.35622438 0.91
1.305 0.35622438 1.11
1.305 0.35622438 1.31
1.31 0.24330968 0.52
1.31 0.24330968 0.72
1.31 0.24330968 0.92
1.31 0.24330968 1.12
1.31 0.24330968 1.32
1.315 0.25904328 0.53
1.315 0.25904328 0.73
1.315 0.25904328 0.93
1.315 0.25904328 1.13
1.315 0.25904328 1.33
1.32 0.29534379 0.54
1.32 0.29534379 0.74
1.32 0.29534379 0.94
1.32 0.29534379 1.14
1.32 0.29534379 1.34
CELLS 0 0
CELL_TYPES 0
POINT_DATA 125
SCALARS m double
LOOKUP_TABLE default
1
1
1
1
1
1
1
1
1
1
1
1
1
1
1
1
1
1
1
1
1
1
1
1
1
1
1
1
1
1
1
1
1
1
1
1
1
1
1
1
1
1
1
1
1
1
1
1
1
1
1
1
1
1
1
1
1
1
1
1
1
1
1
1
1
1
1
1
1
1
1
1
1
1
1
1
1
1
1
1
1
1
1
1
1
1
1
1
1
1
1
1
1
1
1
1
1
1
1
1
1
1
1
1
1
1
1
1
1
1
1
1
1
1
1
1
1
1
1
1
1
1
1
1
1
SCALARS r double
LOOKUP_TABLE default
0.1
0.1
0.1
0.1
0.1
0.1
0.1
0.1
0.1
0.1
0.1
0.1
0.1
0.1
0.1
0.1
0.1
0.1
0.1
0.1
0.1
0.1
0.1
0.1
0.1
0.1
0.1
0.1
0.1
0.1
0.1
0.1
0.1
0.1
0.1
0.1
0.1
0.1
0.1
0.1
0.1
0.1
0.1
0.1
0.1
0.1
0.1
0.1
0.1
0.1
0.1
0.1
0.1
0.1
0.1
0.1
0.1
0.1
0.1
0.1
0.1
0.1
0.1
0.1
0.1
0.1
0.1
0.1
0.1
0.1
0.1
0.1
0.1
0.1
0.1
0.1
0.1
0.1
0.1
0.1
0.1
0.1
0.1
0.1
0.1
0.1
0.1
0.1
0.1
0.1
0.1
0.1
0.1
0.1
0.1
0.1
0.1
0.1
0.1
0.1
0.1
0.1
0.1
0.1
0.1
0.1
0.1
0.1
0.1
0.1
0.1
0.1
0.1
0.1
0.1
0.1
0.1
0.1
0.1
0.1
0.1
0.1
0.1
0.1
0.1
VECTORS v double
1.4039118e-18 -0.18541232 1.4039118e-18
1.4039118e-18 -0.18541232 1.9654765e-18
1.4039118e-18 -0.18541232 2.5270413e-18
1.4039118e-18 -0.18541232 3.088606e-18
1.4039118e-18 -0.18541232 3.6501707e-18
5.8569104e-19 -0.13395431 5.9148996e-19
5.8569104e-19 -0.13395431 8.2344681e-19
5.8569104e-19 -0.13395431 1.0554037e-18
5.8569104e-19 -0.13395431 1.2873605e-18
5.8569104e-19 -0.13395431 1.5193173e-18
1.3630733e-18 0.18836254 1.3898003e-18
1.3630733e-18 0.18836254 1.9243388e-18
1.3630733e-18 0.18836254 2.4588774e-18
1.3630733e-18 0.18836254 2.993416e-18
1.3630733e-18 0.18836254 3.5279545e-18
-2.0957738e-19 0.046143814 -2.1568158e-19
-2.0957738e-19 0.046143814 -2.9707085e-19
-2.0957738e-19 0.046143814 -3.7846013e-19
-2.0957738e-19 0.046143814 -4.598494e-19
-2.0957738e-19 0.046143814 -5.4123868e-19
4.6747195e-20 -0.09258905 4.8545164e-20
4.6747195e-20 -0.09258905 6.6524855e-20
4.6747195e-20 -0.09258905 8.4504545e-20
4.6747195e-20 -0.09258905 1.0248424e-19
4.6747195e-20 -0.09258905 1.2046393e-19
1.9654765e-18 -0.18541232 1.4039118e-18
1.9654765e-18 -0.18541232 1.9654765e-18
1.9654765e-18 -0.18541232 2.5270413e-18
1.9654765e-18 -0.18541232 3.088606e-18
1.9654765e-18 -0.18541232 3.6501707e-18
8.1764789e-19 -0.13395431 5.9148996e-19
8.1764789e-19 -0.13395431 8.2344681e-19
8.1764789e-19 -0.13395431 1.0554037e-18
8.1764789e-19 -0.13395431 1.2873605e-18
8.1764789e-19 -0.13395431 1.5193173e-18
1.8976119e-18 0.18836254 1.3898003e-18
1.8976119e-18 0.18836254 1.9243388e-18
1.8976119e-18 0.18836254 2.4588774e-18
1.8976119e-18 0.18836254 2.993416e-18
1.8976119e-18 0.18836254 3.5279545e-18
-2.9096666e-19 0.046143814 -2.1568158e-19
-2.9096666e-19 0.046143814 -2.9707085e-19
-2.9096666e-19 0.046143814 -3.7846013e-19
-2.9096666e-19 0.046143814 -4.598494e-19
-2.9096666e-19 0.046143814 -5.4123868e-19
6.4726886e-20 -0.09258905 4.8545164e-20
6.4726886e-20 -0.09258905 6.6524855e-20
6.4726886e-20 -0.09258905 8.4504545e-20
6.4726886e-20 -0.09258905 1.0248424e-19
6.4726886e-20 -0.09258905 1.2046393e-19
2.5270413e-18 -0.18541232 1.4039118e-18
2.5270413e-18 -0.18541232 1.9654765e-18
2.5270413e-18 -0.18541232 2.5270413e-18
2.5270413e-18 -0.18541232 3.088606e-18
2.5270413e-18 -0.18541232 3.6501707e-18
1.0496047e-18 -0.13395431 5.9148996e-19
1.0496047e-18 -0.13395431 8.2344681e-19
1.0496047e-18 -0.13395431 1.0554037e-18
1.0496047e-18 -0.13395431 1.2873605e-18
1.0496047e-18 -0.13395431 1.5193173e-18
2.4321505e-18 0.18836254 1.3898003e-18
2.4321505e-18 0.18836254 1.9243388e-18
2.4321505e-18 0.18836254 2.4588774e-18
2.4321505e-18 0.18836254 2.993416e-18
2.4321505e-18 0.18836254 3.5279545e-18
-3.7235593e-19 0.046143814 -2.1568158e-19
-3.7235593e-19 0.046143814 -2.9707085e-19
-3.7235593e-19 0.046143814 -3.7846013e-19
-3.7235593e-19 0.046143814 -4.598494e-19
-3.7235593e-19 0.046143814 -5.4123868e-19
8.2706576e-20 -0.09258905 4.8545164e-20
8.2706576e-20 -0.09258905 6.6524855e-20
8.2706576e-20 -0.09258905 8.4504545e-20
8.2706576e-20 -0.09258905 1.0248424e-19
8.2706576e-20 -0.09258905 1.2046393e-19
3.088606e-18 -0.18541232 1.4039118e-18
3.088606e-18 -0.18541232 1.9654765e-18
3.088606e-18 -0.18541232 2.5270413e-18
3.088606e-18 -0.18541232 3.088606e-18
3.088606e-18 -0.18541232 3.6501707e-18
1.2815616e-18 -0.13395431 5.9148996e-19
1.2815616e-18 -0.13395431 8.2344681e-19
1.2815616e-18 -0.13395431 1.0554037e-18
1.2815616e-18 -0.13395431 1.2873605e-18
1.2815616e-18 -0.13395431 1.5193173e-18
2.966689e-18 0.18836254 1.3898003e-18
2.966689e-18 0.18836254 1.9243388e-18
2.966689e-18 0.18836254 2.4588774e-18
2.966689e-18 0.18836254 2.993416e-18
2.966689e-18 0.18836254 3.5279545e-18
-4.5374521e-19 0.046143814 -2.1568158e-19
-4.5374521e-19 0.046143814 -2.9707085e-19
-4.5374521e-19 0.046143814 -3.7846013e-19
-4.5374521e-19 0.046143814 -4.598494e-19
-4.5374521e-19 0.046143814 -5.4123868e-19
1.0068627e-19 -0.09258905 4.8545164e-20
1.0068627e-19 -0.09258905 6.6524855e-20
1.0068627e-19 -0.09258905 8.4504545e-20
1.0068627e-19 -0.09258905 1.0248424e-19
1.0068627e-19 -0.09258905 1.2046393e-19
3.6501707e-18 -0.18541232 1.4039118e-18
3.6501707e-18 -0.18541232 1.9654765e-18
3.6501707e-18 -0.18541232 2.5270413e-18
3.6501707e-18 -0.18541232 3.088606e-18
3.6501707e-18 -0.18541232 3.6501707e-18
1.5135184e-18 -0.13395431 5.9148996e-19
1.5135184e-18 -0.13395431 8.2344681e-19
1.5135184e-18 -0.13395431 1.0554037e-18
1.5135184e-18 -0.13395431 1.2873605e-18
1.5135184e-18 -0.13395431 1.5193173e-18
3.5012276e-18 0.18836254 1.3898003e-18
3.5012276e-18 0.18836254 1.9243388e-18
3.5012276e-18 0.18836254 2.4588774e-18
3.5012276e-18 0.18836254 2.993416e-18
3.5012276e-18 0.18836254 3.5279545e-18
-5.3513448e-19 0.046143814 -2.1568158e-19
-5.3513448e-19 0.046143814 -2.9707085e-19
-5.3513448e-19 0.046143814 -3.7846013e-19
-5.3513448e-19 0.046143814 -4.598494e-19
-5.3513448e-19 0.046143814 -5.4123868e-19
1.1866596e-19 -0.09258905 4.8545164e-20
1.1866596e-19 -0.09258905 6.6524855e-20
1.1866596e-19 -0.09258905 8.4504545e-20
1.1866596e-19 -0.09258905 1.0248424e-19
1.1866596e-19 -0.09258905 1.2046393e-19
VECTORS q double
1 -2.1332589e-12 2.7794071e-27
1 -2.1332589e-12 3.8911362e-27
1 -2.1332589e-12 5.00283e-27
1 -2.1332589e-12 6.1146511e-27
1 -2.1332589e-12 7.2265991e-27
1 -5.9608681e-13 3.2832659e-28
1 -5.9608681e-13 4.571494e-28
1 -5.9608681e-13 5.8581008e-28
1 -5.9608681e-13 7.146802e-28
1 -5.9608681e-13 8.4343646e-28
1 -1.8305751e-12 2.195766e-27
1 -1.8305751e-12 3.0402811e-27
1 -1.8305751e-12 3.8847785e-27
1 -1.8305751e-12 4.7293859e-27
1 -1.8305751e-12 5.5741595e-27
1 5.447835e-13 1.1197283e-28
1 5.447835e-13 1.541456e-28
1 5.447835e-13 1.9650478e-28
1 5.447835e-13 2.3878648e-28
1 5.447835e-13 2.8095906e-28
1 7.69253e-14 -3.5456683e-30
1 7.69253e-14 -4.926764e-30
1 7.69253e-14 -6.1909736e-30
1 7.69253e-14 -7.5555047e-30
1 7.69253e-14 -8.8894218e-30
1 -2.9865624e-12 3.8911981e-27
1 -2.9865624e-12 5.4476391e-27
1 -2.9865624e-12 7.0044723e-27
1 -2.9865624e-12 8.5608433e-27
1 -2.9865624e-12 1.0117568e-26
1 -8.321608e-13 4.5831156e-28
1 -8.321608e-13 6.3814705e-28
1 -8.321608e-13 8.1778074e-28
1 -8.321608e-13 9.9762748e-28
1 -8.321608e-13 1.1773695e-27
1 -2.5484477e-12 3.0570068e-27
1 -2.5484477e-12 4.2328322e-27
1 -2.5484477e-12 5.4085138e-27
1 -2.5484477e-12 6.5843637e-27
1 -2.5484477e-12 7.7603038e-27
1 7.563499e-13 1.5554583e-28
1 7.563499e-13 2.1413626e-28
1 7.563499e-13 2.7299285e-28
1 7.563499e-13 3.3172017e-28
1 7.563499e-13 3.902788e-28
1 1.0651195e-13 -4.9273098e-30
1 1.0651195e-13 -6.8437671e-30
1 1.0651195e-13 -8.5907094e-30
1 1.0651195e-13 -1.0491313e-29
1 1.0651195e-13 -1.2349681e-29
1 -3.839866e-12 5.0030343e-27
1 -3.839866e-12 7.0037312e-27
1 -3.839866e-12 9.0052726e-27
1 -3.839866e-12 1.1006604e-26
1 -3.839866e-12 1.3008076e-26
1 -1.0682348e-12 5.8837355e-28
1 -1.0682348e-12 8.1923982e-28
1 -1.0682348e-12 1.0498021e-27
1 -1.0682348e-12 1.2807265e-27
1 -1.0682348e-12 1.5114645e-27
1 -3.2663203e-12 3.9181988e-27
1 -3.2663203e-12 5.4252548e-27
1 -3.2663203e-12 6.9321105e-27
1 -3.2663203e-12 8.4393391e-27
1 -3.2663203e-12 9.9466955e-27
1 9.6791631e-13 1.9897434e-28
1 9.6791631e-13 2.7391887e-28
1 9.6791631e-13 3.4918875e-28
1 9.6791631e-13 4.2432998e-28
1 9.6791631e-13 4.9926275e-28
1 1.3609861e-13 -6.2561588e-30
1 1.3609861e-13 -8.6907011e-30
1 1.3609861e-13 -1.0918599e-29
1 1.3609861e-13 -1.3331388e-29
1 1.3609861e-13 -1.5684118e-29
1 -4.6931695e-12 6.1147335e-27
1 -4.6931695e-12 8.5603212e-27
1 -4.6931695e-12 1.1006307e-26
1 -4.6931695e-12 1.3452329e-26
1 -4.6931695e-12 1.5898613e-26
1 -1.3043088e-12 7.1831893e-28
1 -1.3043088e-12 1.0001706e-27
1 -1.3043088e-12 1.281658e-27
1 -1.3043088e-12 1.5635736e-27
1 -1.3043088e-12 1.8452929e-27
1 -3.9841929e-12 4.7796746e-27
1 -3.9841929e-12 6.6180524e-27
1 -3.9841929e-12 8.4561993e-27
1 -3.9841929e-12 1.0294603e-26
1 -3.9841929e-12 1.2133549e-26
1 1.1794827e-12 2.4256044e-28
1 1.1794827e-12 3.3391702e-28
1 1.1794827e-12 4.2568678e-28
1 1.1794827e-12 5.172726e-28
1 1.1794827e-12 6.0861513e-28
1 1.6568526e-13 -7.6357814e-30
1 1.6568526e-13 -1.0607246e-29
1 1.6568526e-13 -1.3322863e-29
1 1.6568526e-13 -1.6267682e-29
1 1.6568526e-13 -1.9135972e-29
1 -5.546473e-12 7.2263176e-27
1 -5.546473e-12 1.011647e-26
1 -5.546473e-12 1.300713e-26
1 -5.546473e-12 1.5897821e-26
1 -5.546473e-12 1.878886e-26
1 -1.5403828e-12 8.4837013e-28
1 -1.5403828e-12 1.1812375e-27
1 -1.5403828e-12 1.5136968e-27
1 -1.5403828e-12 1.8466729e-27
1 -1.5403828e-12 2.1793897e-27
1 -4.7020655e-12 5.6399277e-27
1 -4.7020655e-12 7.8092116e-27
1 -4.7020655e-12 9.9781848e-27
1 -4.7020655e-12 1.2148171e-26
1 -4.7020655e-12 1.4317463e-26
1 1.3910491e-12 2.8607073e-28
1 1.3910491e-12 3.9384972e-28
1 1.3910491e-12 5.0204957e-28
1 1.3910491e-12 6.100716e-28
1 1.3910491e-12 7.1782415e-28
1 1.9527192e-13 -8.9429214e-30
1 1.9527192e-13 -1.2421375e-29
1 1.9527192e-13 -1.5607306e-29
1 1.9527192e-13 -1.9053095e-29
1 1.9527192e-13 -2.2417777e-29
