# vtk DataFile Version 4.0
hesp visualization file
ASCII
DATASET UNSTRUCTURED_GRID
POINTS 125 double
0.5 0.27374404 0.5
0.5 0.27374404 0.7
0.5 0.27374404 0.9
0.5 0.27374404 1.1
0.5 0.27374404 1.3
0.505 0.31980338 0.51
0.505 0.31980338 0.71
0.505 0.31980338 0.91
0.505 0.31980338 1.11
0.505 0.31980338 1.31
0.51 0.253341 0.52
0.51 0.253341 0.72
0.51 0.253341 0.92
0.51 0.253341 1.12
0.51 0.253341 1.32
0.515 0.22802019 0.53
0.515 0.22802019 0.73
0.515 0.22802019 0.93
0.515 0.22802019 1.13
0.515 0.22802019 1.33
0.52 0.20594145 0.54
0.52 0.20594145 0.74
0.52 0.20594145 0.94
0.52 0.20594145 1.14
0.52 0.20594145 1.34
0.7 0.27374404 0.5
0.7 0.27374404 0.7
0.7 0.27374404 0.9
0.7 0.27374404 1.1
0.7 0.27374404 1.3
0.705 0.31980338 0.51
0.705 0.31980338 0.71
0.705 0.31980338 0.91
0.705 0.31980338 1.11
0.705 0.31980338 1.31
0.71 0.253341 0.52
0.71 0.253341 0.72
0.71 0.253341 0.92
0.71 0.253341 1.12
0.71 0.253341 1.32
0.715 0.22802019 0.53
0.715 0.22802019 0.73
0.715 0.22802019 0.93
0.715 0.22802019 1.13
0.715 0.22802019 1.33
0.72 0.20594145 0.54
0.72 0.20594145 0.74
0.72 0.20594145 0.94
0.72 0.20594145 1.14
0.72 0.20594145 1.34
0.9 0.27374404 0.5
0.9 0.27374404 0.7
0.9 0.27374404 0.9
0.9 0.27374404 1.1
0.9 0.27374404 1.3
0.905 0.31980338 0.51
0.905 0.31980338 0.71
0.905 0.31980338 0.91
0.905 0.31980338 1.11
0.905 0.31980338 1.31
0.91 0.253341 0.52
0.91 0.253341 0.72
0.91 0.253341 0.92
0.91 0.253341 1.12
0.91 0.253341 1.32
0.915 0.22802019 0.53
0.915 0.22802019 0.73
0.915 0.22802019 0.93
0.915 0.22802019 1.13
0.915 0.22802019 1.33
0.92 0.20594145 0.54
0.92 0.20594145 0.74
0.92 0.20594145 0.94
0.92 0.20594145 1.14
0.92 0.20594145 1.34
1.1 0.27374404 0.5
1.1 0.27374404 0.7
1.1 0.27374404 0.9
1.1 0.27374404 1.1
1.1 0.27374404 1.3
1.105 0.31980338 0.51
1.105 0.31980338 0.71
1.105 0.31980338 0.91
1.105 0.31980338 1.11
1.105 0.31980338 1.31
1.11 0.253341 0.52
1.11 0.253341 0.72
1.11 0.253341 0.92
1.11 0.253341 1.12
1.11 0.253341 1.32
1.115 0.22802019 0.53
1.115 0.22802019 0.73
1.115 0.22802019 0.93
1.115 0.22802019 1.13
1.115 0.22802019 1.33
1.12 0.20594145 0.54
1.12 0.20594145 0.74
1.12 0.20594145 0.94
1.12 0.20594145 1.14
1.12 0.20594145 1.34
1.3 0.27374404 0.5
1.3 0.27374404 0.7
1.3 0.27374404 0.9
1.3 0.27374404 1.1
1.3 0.27374404 1.3
1.305 0.31980338 0.51
1.305 0.31980338 0.71
1.305 0.31980338 0.91
1.305 0.31980338 1.11
1.305 0.31980338 1.31
1.31 0.253341 0.52
1.31 0.253341 0.72
1.31 0.253341 0.92
1.31 0.253341 1.12
1.31 0.253341 1.32
1.315 0.22802019 0.53
1.315 0.22802019 0.73
1.315 0.22802019 0.93
1.315 0.22802019 1.13
1.315 0.22802019 1.33
1.32 0.20594145 0.54
1.32 0.20594145 0.74
1.32 0.20594145 0.94
1.32 0.20594145 1.14
1.32 0.20594145 1.34
CELLS 0 0
CELL_TYPES 0
POINT_DATA 125
SCALARS m double
LOOKUP_TABLE default
1
1
1
1
1
1
1
1
1
1
1
1
1
1
1
1
1
1
1
1
1
1
1
1
1
1
1
1
1
1
1
1
1
1
1
1
1
1
1
1
1
1
1
1
1
1
1
1
1
1
1
1
1
1
1
1
1
1
1
1
1
1
1
1
1
1
1
1
1
1
1
1
1
1
1
1
1
1
1
1
1
1
1
1
1
1
1
1
1
1
1
1
1
1
1
1
1
1
1
1
1
1
1
1
1
1
1
1
1
1
1
1
1
1
1
1
1
1
1
1
1
1
1
1
1
SCALARS r double
LOOKUP_TABLE default
0.1
0.1
0.1
0.1
0.1
0.1
0.1
0.1
0.1
0.1
0.1
0.1
0.1
0.1
0.1
0.1
0.1
0.1
0.1
0.1
0.1
0.1
0.1
0.1
0.1
0.1
0.1
0.1
0.1
0.1
0.1
0.1
0.1
0.1
0.1
0.1
0.1
0.1
0.1
0.1
0.1
0.1
0.1
0.1
0.1
0.1
0.1
0.1
0.1
0.1
0.1
0.1
0.1
0.1
0.1
0.1
0.1
0.1
0.1
0.1
0.1
0.1
0.1
0.1
0.1
0.1
0.1
0.1
0.1
0.1
0.1
0.1
0.1
0.1
0.1
0.1
0.1
0.1
0.1
0.1
0.1
0.1
0.1
0.1
0.1
0.1
0.1
0.1
0.1
0.1
0.1
0.1
0.1
0.1
0.1
0.1
0.1
0.1
0.1
0.1
0.1
0.1
0.1
0.1
0.1
0.1
0.1
0.1
0.1
0.1
0.1
0.1
0.1
0.1
0.1
0.1
0.1
0.1
0.1
0.1
0.1
0.1
0.1
0.1
0.1
VECTORS v double
1.6586715e-18 0.14218165 1.6586715e-18
1.6586715e-18 0.14218165 2.3221401e-18
1.6586715e-18 0.14218165 2.9856087e-18
1.6586715e-18 0.14218165 3.6490773e-18
1.6586715e-18 0.14218165 4.3125459e-18
7.3759961e-19 0.22144295 7.4490258e-19
7.3759961e-19 0.22144295 1.0370212e-18
7.3759961e-19 0.22144295 1.3291399e-18
7.3759961e-19 0.22144295 1.6212586e-18
7.3759961e-19 0.22144295 1.9133772e-18
1.5206319e-18 -0.13983435 1.5504482e-18
1.5206319e-18 -0.13983435 2.1467745e-18
1.5206319e-18 -0.13983435 2.7431007e-18
1.5206319e-18 -0.13983435 3.3394269e-18
1.5206319e-18 -0.13983435 3.9357532e-18
-2.0004258e-19 -0.29294102 -2.0586907e-19
-2.0004258e-19 -0.29294102 -2.835555e-19
-2.0004258e-19 -0.29294102 -3.6124194e-19
-2.0004258e-19 -0.29294102 -4.3892838e-19
-2.0004258e-19 -0.29294102 -5.1661482e-19
9.3302742e-20 -0.055529559 9.6891309e-20
9.3302742e-20 -0.055529559 1.3277698e-19
9.3302742e-20 -0.055529559 1.6866265e-19
9.3302742e-20 -0.055529559 2.0454832e-19
9.3302742e-20 -0.055529559 2.4043399e-19
2.3221401e-18 0.14218165 1.6586715e-18
2.3221401e-18 0.14218165 2.3221401e-18
2.3221401e-18 0.14218165 2.9856087e-18
2.3221401e-18 0.14218165 3.6490773e-18
2.3221401e-18 0.14218165 4.3125459e-18
1.0297183e-18 0.22144295 7.4490258e-19
1.0297183e-18 0.22144295 1.0370212e-18
1.0297183e-18 0.22144295 1.3291399e-18
1.0297183e-18 0.22144295 1.6212586e-18
1.0297183e-18 0.22144295 1.9133772e-18
2.1169581e-18 -0.13983435 1.5504482e-18
2.1169581e-18 -0.13983435 2.1467745e-18
2.1169581e-18 -0.13983435 2.7431007e-18
2.1169581e-18 -0.13983435 3.3394269e-18
2.1169581e-18 -0.13983435 3.9357532e-18
-2.7772902e-19 -0.29294102 -2.0586907e-19
-2.7772902e-19 -0.29294102 -2.835555e-19
-2.7772902e-19 -0.29294102 -3.6124194e-19
-2.7772902e-19 -0.29294102 -4.3892838e-19
-2.7772902e-19 -0.29294102 -5.1661482e-19
1.2918841e-19 -0.055529559 9.6891309e-20
1.2918841e-19 -0.055529559 1.3277698e-19
1.2918841e-19 -0.055529559 1.6866265e-19
1.2918841e-19 -0.055529559 2.0454832e-19
1.2918841e-19 -0.055529559 2.4043399e-19
2.9856087e-18 0.14218165 1.6586715e-18
2.9856087e-18 0.14218165 2.3221401e-18
2.9856087e-18 0.14218165 2.9856087e-18
2.9856087e-18 0.14218165 3.6490773e-18
2.9856087e-18 0.14218165 4.3125459e-18
1.3218369e-18 0.22144295 7.4490258e-19
1.3218369e-18 0.22144295 1.0370212e-18
1.3218369e-18 0.22144295 1.3291399e-18
1.3218369e-18 0.22144295 1.6212586e-18
1.3218369e-18 0.22144295 1.9133772e-18
2.7132844e-18 -0.13983435 1.5504482e-18
2.7132844e-18 -0.13983435 2.1467745e-18
2.7132844e-18 -0.13983435 2.7431007e-18
2.7132844e-18 -0.13983435 3.3394269e-18
2.7132844e-18 -0.13983435 3.9357532e-18
-3.5541546e-19 -0.29294102 -2.0586907e-19
-3.5541546e-19 -0.29294102 -2.835555e-19
-3.5541546e-19 -0.29294102 -3.6124194e-19
-3.5541546e-19 -0.29294102 -4.3892838e-19
-3.5541546e-19 -0.29294102 -5.1661482e-19
1.6507408e-19 -0.055529559 9.6891309e-20
1.6507408e-19 -0.055529559 1.3277698e-19
1.6507408e-19 -0.055529559 1.6866265e-19
1.6507408e-19 -0.055529559 2.0454832e-19
1.6507408e-19 -0.055529559 2.4043399e-19
3.6490773e-18 0.14218165 1.6586715e-18
3.6490773e-18 0.14218165 2.3221401e-18
3.6490773e-18 0.14218165 2.9856087e-18
3.6490773e-18 0.14218165 3.6490773e-18
3.6490773e-18 0.14218165 4.3125459e-18
1.6139556e-18 0.22144295 7.4490258e-19
1.6139556e-18 0.22144295 1.0370212e-18
1.6139556e-18 0.22144295 1.3291399e-18
1.6139556e-18 0.22144295 1.6212586e-18
1.6139556e-18 0.22144295 1.9133772e-18
3.3096106e-18 -0.13983435 1.5504482e-18
3.3096106e-18 -0.13983435 2.1467745e-18
3.3096106e-18 -0.13983435 2.7431007e-18
3.3096106e-18 -0.13983435 3.3394269e-18
3.3096106e-18 -0.13983435 3.9357532e-18
-4.331019e-19 -0.29294102 -2.0586907e-19
-4.331019e-19 -0.29294102 -2.835555e-19
-4.331019e-19 -0.29294102 -3.6124194e-19
-4.331019e-19 -0.29294102 -4.3892838e-19
-4.331019e-19 -0.29294102 -5.1661482e-19
2.0095975e-19 -0.055529559 9.6891309e-20
2.0095975e-19 -0.055529559 1.3277698e-19
2.0095975e-19 -0.055529559 1.6866265e-19
2.0095975e-19 -0.055529559 2.0454832e-19
2.0095975e-19 -0.055529559 2.4043399e-19
4.3125459e-18 0.14218165 1.6586715e-18
4.3125459e-18 0.14218165 2.3221401e-18
4.3125459e-18 0.14218165 2.9856087e-18
4.3125459e-18 0.14218165 3.6490773e-18
4.3125459e-18 0.14218165 4.3125459e-18
1.9060743e-18 0.22144295 7.4490258e-19
1.9060743e-18 0.22144295 1.0370212e-18
1.9060743e-18 0.22144295 1.3291399e-18
1.9060743e-18 0.22144295 1.6212586e-18
1.9060743e-18 0.22144295 1.9133772e-18
3.9059369e-18 -0.13983435 1.5504482e-18
3.9059369e-18 -0.13983435 2.1467745e-18
3.9059369e-18 -0.13983435 2.7431007e-18
3.9059369e-18 -0.13983435 3.3394269e-18
3.9059369e-18 -0.13983435 3.9357532e-18
-5.1078834e-19 -0.29294102 -2.0586907e-19
-5.1078834e-19 -0.29294102 -2.835555e-19
-5.1078834e-19 -0.29294102 -3.6124194e-19
-5.1078834e-19 -0.29294102 -4.3892838e-19
-5.1078834e-19 -0.29294102 -5.1661482e-19
2.3684542e-19 -0.055529559 9.6891309e-20
2.3684542e-19 -0.055529559 1.3277698e-19
2.3684542e-19 -0.055529559 1.6866265e-19
2.3684542e-19 -0.055529559 2.0454832e-19
2.3684542e-19 -0.055529559 2.4043399e-19
VECTORS q double
1 -2.644499e-12 3.9471666e-27
1 -2.644499e-12 5.5259777e-27
1 -2.644499e-12 7.1047142e-27
1 -2.644499e-12 8.6836788e-27
1 -2.644499e-12 1.0262785e-26
1 -8.1648527e-13 5.4622046e-28
1 -8.1648527e-13 7.6053658e-28
1 -8.1648527e-13 9.7459754e-28
1 -8.1648527e-13 1.1889637e-27
1 -8.1648527e-13 1.403168e-27
1 -2.2931484e-12 3.1655184e-27
1 -2.2931484e-12 4.3830103e-27
1 -2.2931484e-12 5.600533e-27
1 -2.2931484e-12 6.8181172e-27
1 -2.2931484e-12 8.0358953e-27
1 6.1560487e-13 1.1780774e-28
1 6.1560487e-13 1.6217224e-28
1 6.1560487e-13 2.0674753e-28
1 6.1560487e-13 2.5123954e-28
1 6.1560487e-13 2.9560359e-28
1 5.2826277e-14 -4.7798553e-30
1 5.2826277e-14 -6.6320647e-30
1 5.2826277e-14 -8.3441198e-30
1 5.2826277e-14 -1.0174287e-29
1 5.2826277e-14 -1.1969567e-29
1 -3.7022986e-12 5.5260814e-27
1 -3.7022986e-12 7.7364516e-27
1 -3.7022986e-12 9.9473271e-27
1 -3.7022986e-12 1.2157634e-26
1 -3.7022986e-12 1.4368391e-26
1 -1.1398458e-12 7.6247334e-28
1 -1.1398458e-12 1.0616527e-27
1 -1.1398458e-12 1.3605232e-27
1 -1.1398458e-12 1.6596932e-27
1 -1.1398458e-12 1.9587139e-27
1 -3.1924223e-12 4.4071196e-27
1 -3.1924223e-12 6.1022232e-27
1 -3.1924223e-12 7.7972209e-27
1 -3.1924223e-12 9.4923385e-27
1 -3.1924223e-12 1.1187537e-26
1 8.5467472e-13 1.6368106e-28
1 8.5467472e-13 2.2532824e-28
1 8.5467472e-13 2.8728001e-28
1 8.5467472e-13 3.4908401e-28
1 8.5467472e-13 4.1067752e-28
1 7.3144077e-14 -6.6396362e-30
1 7.3144077e-14 -9.2099383e-30
1 7.3144077e-14 -1.157598e-29
1 7.3144077e-14 -1.4125807e-29
1 7.3144077e-14 -1.6624828e-29
1 -4.7600982e-12 7.1050824e-27
1 -4.7600982e-12 9.9463836e-27
1 -4.7600982e-12 1.2788809e-26
1 -4.7600982e-12 1.5631032e-26
1 -4.7600982e-12 1.847341e-26
1 -1.4632063e-12 9.7885164e-28
1 -1.4632063e-12 1.3629307e-27
1 -1.4632063e-12 1.7465362e-27
1 -1.4632063e-12 2.1306731e-27
1 -1.4632063e-12 2.5145348e-27
1 -4.0916961e-12 5.6486062e-27
1 -4.0916961e-12 7.8212116e-27
1 -4.0916961e-12 9.9936646e-27
1 -4.0916961e-12 1.2166447e-26
1 -4.0916961e-12 1.4339369e-26
1 1.0937446e-12 2.0935646e-28
1 1.0937446e-12 2.882014e-28
1 1.0937446e-12 3.6741403e-28
1 1.0937446e-12 4.4648856e-28
1 1.0937446e-12 5.2532019e-28
1 9.3461876e-14 -8.4308754e-30
1 9.3461876e-14 -1.1694973e-29
1 9.3461876e-14 -1.4711425e-29
1 9.3461876e-14 -1.7948758e-29
1 9.3461876e-14 -2.1113181e-29
1 -5.8178978e-12 8.6838442e-27
1 -5.8178978e-12 1.2156932e-26
1 -5.8178978e-12 1.5630533e-26
1 -5.8178978e-12 1.9104284e-26
1 -5.8178978e-12 2.2578331e-26
1 -1.7865668e-12 1.1950658e-27
1 -1.7865668e-12 1.6639779e-27
1 -1.7865668e-12 2.1323236e-27
1 -1.7865668e-12 2.6012957e-27
1 -1.7865668e-12 3.0699751e-27
1 -4.99097e-12 6.8905295e-27
1 -4.99097e-12 9.5407703e-27
1 -4.99097e-12 1.2190841e-26
1 -4.99097e-12 1.484105e-26
1 -4.99097e-12 1.7491959e-26
1 1.3328144e-12 2.5524059e-28
1 1.3328144e-12 3.5136071e-28
1 1.3328144e-12 4.479529e-28
1 1.3328144e-12 5.4433887e-28
1 1.3328144e-12 6.4043798e-28
1 1.1377967e-13 -1.0292128e-29
1 1.1377967e-13 -1.4276235e-29
1 1.1377967e-13 -1.7955244e-29
1 1.1377967e-13 -2.1905395e-29
1 1.1377967e-13 -2.5766477e-29
1 -6.8756975e-12 1.0262481e-26
1 -6.8756975e-12 1.4366927e-26
1 -6.8756975e-12 1.8472021e-26
1 -6.8756975e-12 2.2577276e-26
1 -6.8756975e-12 2.668292e-26
1 -2.1099273e-12 1.4113964e-27
1 -2.1099273e-12 1.9651603e-27
1 -2.1099273e-12 2.5183108e-27
1 -2.1099273e-12 3.0721972e-27
1 -2.1099273e-12 3.625709e-27
1 -5.8902439e-12 8.1307246e-27
1 -5.8902439e-12 1.1258009e-26
1 -5.8902439e-12 1.4385058e-26
1 -5.8902439e-12 1.7513244e-26
1 -5.8902439e-12 2.0640391e-26
1 1.5718843e-12 3.0102902e-28
1 1.5718843e-12 4.1443087e-28
1 1.5718843e-12 5.283092e-28
1 1.5718843e-12 6.4199647e-28
1 1.5718843e-12 7.5536887e-28
1 1.3409747e-13 -1.2060889e-29
1 1.3409747e-13 -1.6729327e-29
1 1.3409747e-13 -2.1045755e-29
1 1.3409747e-13 -2.5671481e-29
1 1.3409747e-13 -3.0200934e-29
