# vtk DataFile Version 4.0
hesp visualization file
ASCII
DATASET UNSTRUCTURED_GRID
POINTS 125 double
0.5 0.24152716 0.5
0.5 0.24152716 0.7
0.5 0.24152716 0.9
0.5 0.24152716 1.1
0.5 0.24152716 1.3
0.505 0.270791 0.51
0.505 0.270791 0.71
0.505 0.270791 0.91
0.505 0.270791 1.11
0.505 0.270791 1.31
0.51 0.21619895 0.52
0.51 0.21619895 0.72
0.51 0.21619895 0.92
0.51 0.21619895 1.12
0.51 0.21619895 1.32
0.515 0.26477142 0.53
0.515 0.26477142 0.73
0.515 0.26477142 0.93
0.515 0.26477142 1.13
0.515 0.26477142 1.33
0.52 0.25909419 0.54
0.52 0.25909419 0.74
0.52 0.25909419 0.94
0.52 0.25909419 1.14
0.52 0.25909419 1.34
0.7 0.24152716 0.5
0.7 0.24152716 0.7
0.7 0.24152716 0.9
0.7 0.24152716 1.1
0.7 0.24152716 1.3
0.705 0.270791 0.51
0.705 0.270791 0.71
0.705 0.270791 0.91
0.705 0.270791 1.11
0.705 0.270791 1.31
0.71 0.21619895 0.52
0.71 0.21619895 0.72
0.71 0.21619895 0.92
0.71 0.21619895 1.12
0.71 0.21619895 1.32
0.715 0.26477142 0.53
0.715 0.26477142 0.73
0.715 0.26477142 0.93
0.715 0.26477142 1.13
0.715 0.26477142 1.33
0.72 0.25909419 0.54
0.72 0.25909419 0.74
0.72 0.25909419 0.94
0.72 0.25909419 1.14
0.72 0.25909419 1.34
0.9 0.24152716 0.5
0.9 0.24152716 0.7
0.9 0.24152716 0.9
0.9 0.24152716 1.1
0.9 0.24152716 1.3
0.905 0.270791 0.51
0.905 0.270791 0.71
0.905 0.270791 0.91
0.905 0.270791 1.11
0.905 0.270791 1.31
0.91 0.21619895 0.52
0.91 0.21619895 0.72
0.91 0.21619895 0.92
0.91 0.21619895 1.12
0.91 0.21619895 1.32
0.915 0.26477142 0.53
0.915 0.26477142 0.73
0.915 0.26477142 0.93
0.915 0.26477142 1.13
0.915 0.26477142 1.33
0.92 0.25909419 0.54
0.92 0.25909419 0.74
0.92 0.25909419 0.94
0.92 0.25909419 1.14
0.92 0.25909419 1.34
1.1 0.24152716 0.5
1.1 0.24152716 0.7
1.1 0.24152716 0.9
1.1 0.24152716 1.1
1.1 0.24152716 1.3
1.105 0.270791 0.51
1.105 0.270791 0.71
1.105 0.270791 0.91
1.105 0.270791 1.11
1.105 0.270791 1.31
1.11 0.21619895 0.52
1.11 0.21619895 0.72
1.11 0.21619895 0.92
1.11 0.21619895 1.12
1.11 0.21619895 1.32
1.115 0.26477142 0.53
1.115 0.26477142 0.73
1.115 0.26477142 0.93
1.115 0.26477142 1.13
1.115 0.26477142 1.33
1.12 0.25909419 0.54
1.12 0.25909419 0.74
1.12 0.25909419 0.94
1.12 0.25909419 1.14
1.12 0.25909419 1.34
1.3 0.24152716 0.5
1.3 0.24152716 0.7
1.3 0.24152716 0.9
1.3 0.24152716 1.1
1.3 0.24152716 1.3
1.305 0.270791 0.51
1.305 0.270791 0.71
1.305 0.270791 0.91
1.305 0.270791 1.11
1.305 0.270791 1.31
1.31 0.21619895 0.52
1.31 0.21619895 0.72
1.31 0.21619895 0.92
1.31 0.21619895 1.12
1.31 0.21619895 1.32
1.315 0.26477142 0.53
1.315 0.26477142 0.73
1.315 0.26477142 0.93
1.315 0.26477142 1.13
1.315 0.26477142 1.33
1.32 0.25909419 0.54
1.32 0.25909419 0.74
1.32 0.25909419 0.94
1.32 0.25909419 1.14
1.32 0.25909419 1.34
CELLS 0 0
CELL_TYPES 0
POINT_DATA 125
SCALARS m double
LOOKUP_TABLE default
1
1
1
1
1
1
1
1
1
1
1
1
1
1
1
1
1
1
1
1
1
1
1
1
1
1
1
1
1
1
1
1
1
1
1
1
1
1
1
1
1
1
1
1
1
1
1
1
1
1
1
1
1
1
1
1
1
1
1
1
1
1
1
1
1
1
1
1
1
1
1
1
1
1
1
1
1
1
1
1
1
1
1
1
1
1
1
1
1
1
1
1
1
1
1
1
1
1
1
1
1
1
1
1
1
1
1
1
1
1
1
1
1
1
1
1
1
1
1
1
1
1
1
1
1
SCALARS r double
LOOKUP_TABLE default
0.1
0.1
0.1
0.1
0.1
0.1
0.1
0.1
0.1
0.1
0.1
0.1
0.1
0.1
0.1
0.1
0.1
0.1
0.1
0.1
0.1
0.1
0.1
0.1
0.1
0.1
0.1
0.1
0.1
0.1
0.1
0.1
0.1
0.1
0.1
0.1
0.1
0.1
0.1
0.1
0.1
0.1
0.1
0.1
0.1
0.1
0.1
0.1
0.1
0.1
0.1
0.1
0.1
0.1
0.1
0.1
0.1
0.1
0.1
0.1
0.1
0.1
0.1
0.1
0.1
0.1
0.1
0.1
0.1
0.1
0.1
0.1
0.1
0.1
0.1
0.1
0.1
0.1
0.1
0.1
0.1
0.1
0.1
0.1
0.1
0.1
0.1
0.1
0.1
0.1
0.1
0.1
0.1
0.1
0.1
0.1
0.1
0.1
0.1
0.1
0.1
0.1
0.1
0.1
0.1
0.1
0.1
0.1
0.1
0.1
0.1
0.1
0.1
0.1
0.1
0.1
0.1
0.1
0.1
0.1
0.1
0.1
0.1
0.1
0.1
VECTORS v double
4.9174658e-19 -0.20865662 4.9174658e-19
4.9174658e-19 -0.20865662 6.8844521e-19
4.9174658e-19 -0.20865662 8.8514384e-19
4.9174658e-19 -0.20865662 1.0818425e-18
4.9174658e-19 -0.20865662 1.2785411e-18
6.2445322e-20 -0.058819828 6.3063593e-20
6.2445322e-20 -0.058819828 8.7794413e-20
6.2445322e-20 -0.058819828 1.1252523e-19
6.2445322e-20 -0.058819828 1.3725605e-19
6.2445322e-20 -0.058819828 1.6198688e-19
4.1164444e-19 -0.03440383 4.197159e-19
4.1164444e-19 -0.03440383 5.8114509e-19
4.1164444e-19 -0.03440383 7.4257428e-19
4.1164444e-19 -0.03440383 9.0400348e-19
4.1164444e-19 -0.03440383 1.0654327e-18
-1.415144e-19 0.059333614 -1.4563617e-19
-1.415144e-19 0.059333614 -2.0059322e-19
-1.415144e-19 0.059333614 -2.5555027e-19
-1.415144e-19 0.059333614 -3.1050732e-19
-1.415144e-19 0.059333614 -3.6546436e-19
-3.7579791e-20 -0.13624896 -3.9025168e-20
-3.7579791e-20 -0.13624896 -5.3478934e-20
-3.7579791e-20 -0.13624896 -6.79327e-20
-3.7579791e-20 -0.13624896 -8.2386466e-20
-3.7579791e-20 -0.13624896 -9.6840232e-20
6.8844521e-19 -0.20865662 4.9174658e-19
6.8844521e-19 -0.20865662 6.8844521e-19
6.8844521e-19 -0.20865662 8.8514384e-19
6.8844521e-19 -0.20865662 1.0818425e-18
6.8844521e-19 -0.20865662 1.2785411e-18
8.7176143e-20 -0.058819828 6.3063593e-20
8.7176143e-20 -0.058819828 8.7794413e-20
8.7176143e-20 -0.058819828 1.1252523e-19
8.7176143e-20 -0.058819828 1.3725605e-19
8.7176143e-20 -0.058819828 1.6198688e-19
5.7307363e-19 -0.03440383 4.197159e-19
5.7307363e-19 -0.03440383 5.8114509e-19
5.7307363e-19 -0.03440383 7.4257428e-19
5.7307363e-19 -0.03440383 9.0400348e-19
5.7307363e-19 -0.03440383 1.0654327e-18
-1.9647144e-19 0.059333614 -1.4563617e-19
-1.9647144e-19 0.059333614 -2.0059322e-19
-1.9647144e-19 0.059333614 -2.5555027e-19
-1.9647144e-19 0.059333614 -3.1050732e-19
-1.9647144e-19 0.059333614 -3.6546436e-19
-5.2033557e-20 -0.13624896 -3.9025168e-20
-5.2033557e-20 -0.13624896 -5.3478934e-20
-5.2033557e-20 -0.13624896 -6.79327e-20
-5.2033557e-20 -0.13624896 -8.2386466e-20
-5.2033557e-20 -0.13624896 -9.6840232e-20
8.8514384e-19 -0.20865662 4.9174658e-19
8.8514384e-19 -0.20865662 6.8844521e-19
8.8514384e-19 -0.20865662 8.8514384e-19
8.8514384e-19 -0.20865662 1.0818425e-18
8.8514384e-19 -0.20865662 1.2785411e-18
1.1190696e-19 -0.058819828 6.3063593e-20
1.1190696e-19 -0.058819828 8.7794413e-20
1.1190696e-19 -0.058819828 1.1252523e-19
1.1190696e-19 -0.058819828 1.3725605e-19
1.1190696e-19 -0.058819828 1.6198688e-19
7.3450282e-19 -0.03440383 4.197159e-19
7.3450282e-19 -0.03440383 5.8114509e-19
7.3450282e-19 -0.03440383 7.4257428e-19
7.3450282e-19 -0.03440383 9.0400348e-19
7.3450282e-19 -0.03440383 1.0654327e-18
-2.5142849e-19 0.059333614 -1.4563617e-19
-2.5142849e-19 0.059333614 -2.0059322e-19
-2.5142849e-19 0.059333614 -2.5555027e-19
-2.5142849e-19 0.059333614 -3.1050732e-19
-2.5142849e-19 0.059333614 -3.6546436e-19
-6.6487323e-20 -0.13624896 -3.9025168e-20
-6.6487323e-20 -0.13624896 -5.3478934e-20
-6.6487323e-20 -0.13624896 -6.79327e-20
-6.6487323e-20 -0.13624896 -8.2386466e-20
-6.6487323e-20 -0.13624896 -9.6840232e-20
1.0818425e-18 -0.20865662 4.9174658e-19
1.0818425e-18 -0.20865662 6.8844521e-19
1.0818425e-18 -0.20865662 8.8514384e-19
1.0818425e-18 -0.20865662 1.0818425e-18
1.0818425e-18 -0.20865662 1.2785411e-18
1.3663778e-19 -0.058819828 6.3063593e-20
1.3663778e-19 -0.058819828 8.7794413e-20
1.3663778e-19 -0.058819828 1.1252523e-19
1.3663778e-19 -0.058819828 1.3725605e-19
1.3663778e-19 -0.058819828 1.6198688e-19
8.9593202e-19 -0.03440383 4.197159e-19
8.9593202e-19 -0.03440383 5.8114509e-19
8.9593202e-19 -0.03440383 7.4257428e-19
8.9593202e-19 -0.03440383 9.0400348e-19
8.9593202e-19 -0.03440383 1.0654327e-18
-3.0638554e-19 0.059333614 -1.4563617e-19
-3.0638554e-19 0.059333614 -2.0059322e-19
-3.0638554e-19 0.059333614 -2.5555027e-19
-3.0638554e-19 0.059333614 -3.1050732e-19
-3.0638554e-19 0.059333614 -3.6546436e-19
-8.0941089e-20 -0.13624896 -3.9025168e-20
-8.0941089e-20 -0.13624896 -5.3478934e-20
-8.0941089e-20 -0.13624896 -6.79327e-20
-8.0941089e-20 -0.13624896 -8.2386466e-20
-8.0941089e-20 -0.13624896 -9.6840232e-20
1.2785411e-18 -0.20865662 4.9174658e-19
1.2785411e-18 -0.20865662 6.8844521e-19
1.2785411e-18 -0.20865662 8.8514384e-19
1.2785411e-18 -0.20865662 1.0818425e-18
1.2785411e-18 -0.20865662 1.2785411e-18
1.613686e-19 -0.058819828 6.3063593e-20
1.613686e-19 -0.058819828 8.7794413e-20
1.613686e-19 -0.058819828 1.1252523e-19
1.613686e-19 -0.058819828 1.3725605e-19
1.613686e-19 -0.058819828 1.6198688e-19
1.0573612e-18 -0.03440383 4.197159e-19
1.0573612e-18 -0.03440383 5.8114509e-19
1.0573612e-18 -0.03440383 7.4257428e-19
1.0573612e-18 -0.03440383 9.0400348e-19
1.0573612e-18 -0.03440383 1.0654327e-18
-3.6134258e-19 0.059333614 -1.4563617e-19
-3.6134258e-19 0.059333614 -2.0059322e-19
-3.6134258e-19 0.059333614 -2.5555027e-19
-3.6134258e-19 0.059333614 -3.1050732e-19
-3.6134258e-19 0.059333614 -3.6546436e-19
-9.5394855e-20 -0.13624896 -3.9025168e-20
-9.5394855e-20 -0.13624896 -5.3478934e-20
-9.5394855e-20 -0.13624896 -6.79327e-20
-9.5394855e-20 -0.13624896 -8.2386466e-20
-9.5394855e-20 -0.13624896 -9.6840232e-20
VECTORS q double
1 -3.6313917e-13 1.6600433e-28
1 -3.6313917e-13 2.3240741e-28
1 -3.6313917e-13 2.9880368e-28
1 -3.6313917e-13 3.6521133e-28
1 -3.6313917e-13 4.3162458e-28
1 -1.8180961e-14 1.1347988e-30
1 -1.8180961e-14 1.58101e-30
1 -1.8180961e-14 2.0247855e-30
1 -1.8180961e-14 2.4726567e-30
1 -1.8180961e-14 2.9158315e-30
1 -2.9916714e-13 1.1071968e-28
1 -2.9916714e-13 1.533047e-28
1 -2.9916714e-13 1.9585302e-28
1 -2.9916714e-13 2.3845382e-28
1 -2.9916714e-13 2.8109999e-28
1 1.6113776e-13 2.3656393e-29
1 1.6113776e-13 3.2561033e-29
1 1.6113776e-13 4.1514765e-29
1 1.6113776e-13 5.0447718e-29
1 1.6113776e-13 5.9346176e-29
1 4.694685e-14 1.8257565e-30
1 4.694685e-14 2.4893901e-30
1 4.694685e-14 3.1721937e-30
1 4.694685e-14 3.8405957e-30
1 4.694685e-14 4.5111989e-30
1 -5.0839483e-13 2.3240512e-28
1 -5.0839483e-13 3.2537047e-28
1 -5.0839483e-13 4.1833536e-28
1 -5.0839483e-13 5.1129299e-28
1 -5.0839483e-13 6.0426288e-28
1 -2.5381341e-14 1.5834866e-30
1 -2.5381341e-14 2.2064698e-30
1 -2.5381341e-14 2.8257659e-30
1 -2.5381341e-14 3.4511564e-30
1 -2.5381341e-14 4.0682942e-30
1 -4.1648759e-13 1.5412954e-28
1 -4.1648759e-13 2.1341301e-28
1 -4.1648759e-13 2.7265071e-28
1 -4.1648759e-13 3.3195077e-28
1 -4.1648759e-13 3.9130816e-28
1 2.2371553e-13 3.2846968e-29
1 2.2371553e-13 4.5211995e-29
1 2.2371553e-13 5.7646097e-29
1 2.2371553e-13 7.0050339e-29
1 2.2371553e-13 8.2406265e-29
1 6.500333e-14 2.527076e-30
1 6.500333e-14 3.446347e-30
1 6.500333e-14 4.3938201e-30
1 6.500333e-14 5.3190536e-30
1 6.500333e-14 6.2456426e-30
1 -6.536505e-13 2.988134e-28
1 -6.536505e-13 4.1832085e-28
1 -6.536505e-13 5.3785599e-28
1 -6.536505e-13 6.573892e-28
1 -6.536505e-13 7.7692209e-28
1 -3.2581722e-14 2.0337233e-30
1 -3.2581722e-14 2.8339289e-30
1 -3.2581722e-14 3.6290485e-30
1 -3.2581722e-14 4.4317722e-30
1 -3.2581722e-14 5.2260832e-30
1 -5.3380804e-13 1.9759715e-28
1 -5.3380804e-13 2.7359572e-28
1 -5.3380804e-13 3.4952808e-28
1 -5.3380804e-13 4.255641e-28
1 -5.3380804e-13 5.0166939e-28
1 2.862933e-13 4.202735e-29
1 2.862933e-13 5.7847465e-29
1 2.862933e-13 7.3754284e-29
1 2.862933e-13 8.9627151e-29
1 2.862933e-13 1.0543287e-28
1 8.3059811e-14 3.2325772e-30
1 8.3059811e-14 4.4077392e-30
1 8.3059811e-14 5.6180054e-30
1 8.3059811e-14 6.8001545e-30
1 8.3059811e-14 7.9875258e-30
1 -7.9890616e-13 3.6520718e-28
1 -7.9890616e-13 5.1129544e-28
1 -7.9890616e-13 6.5736758e-28
1 -7.9890616e-13 8.0346144e-28
1 -7.9890616e-13 9.4955197e-28
1 -3.9782102e-14 2.4821584e-30
1 -3.9782102e-14 3.458292e-30
1 -3.9782102e-14 4.4282599e-30
1 -3.9782102e-14 5.4086237e-30
1 -3.9782102e-14 6.3772231e-30
1 -6.5112848e-13 2.4104075e-28
1 -6.5112848e-13 3.3374263e-28
1 -6.5112848e-13 4.263757e-28
1 -6.5112848e-13 5.1913611e-28
1 -6.5112848e-13 6.1196334e-28
1 3.4887107e-13 5.1223817e-29
1 3.4887107e-13 7.0503721e-29
1 3.4887107e-13 8.9892429e-29
1 3.4887107e-13 1.0923663e-28
1 3.4887107e-13 1.2850163e-28
1 1.0111629e-13 3.9336546e-30
1 1.0111629e-13 5.3639164e-30
1 1.0111629e-13 6.8379204e-30
1 1.0111629e-13 8.2761073e-30
1 1.0111629e-13 9.7221933e-30
1 -9.4416183e-13 4.3159642e-28
1 -9.4416183e-13 6.0424658e-28
1 -9.4416183e-13 7.7686614e-28
1 -9.4416183e-13 9.4953113e-28
1 -9.4416183e-13 1.1222121e-27
1 -4.6982483e-14 2.9334838e-30
1 -4.6982483e-14 4.0868068e-30
1 -4.6982483e-14 5.2335064e-30
1 -4.6982483e-14 6.390729e-30
1 -4.6982483e-14 7.5355148e-30
1 -7.6844893e-13 2.8442333e-28
1 -7.6844893e-13 3.9382071e-28
1 -7.6844893e-13 5.0311612e-28
1 -7.6844893e-13 6.1257754e-28
1 -7.6844893e-13 7.2210874e-28
1 4.1144884e-13 6.040925e-29
1 4.1144884e-13 8.3160692e-29
1 4.1144884e-13 1.0601839e-28
1 4.1144884e-13 1.2883153e-28
1 4.1144884e-13 1.5155695e-28
1 1.1917277e-13 4.646019e-30
1 1.1917277e-13 6.3364507e-30
1 1.1917277e-13 8.0737209e-30
1 1.1917277e-13 9.7738713e-30
1 1.1917277e-13 1.148105e-29
