# vtk DataFile Version 4.0
hesp visualization file
ASCII
DATASET UNSTRUCTURED_GRID
POINTS 125 double
0.5 0.24061209 0.5
0.5 0.24061209 0.7
0.5 0.24061209 0.9
0.5 0.24061209 1.1
0.5 0.24061209 1.3
0.505 0.22040553 0.51
0.505 0.22040553 0.71
0.505 0.22040553 0.91
0.505 0.22040553 1.11
0.505 0.22040553 1.31
0.51 0.20445512 0.52
0.51 0.20445512 0.72
0.51 0.20445512 0.92
0.51 0.20445512 1.12
0.51 0.20445512 1.32
0.515 0.21074978 0.53
0.515 0.21074978 0.73
0.515 0.21074978 0.93
0.515 0.21074978 1.13
0.515 0.21074978 1.33
0.52 0.23028659 0.54
0.52 0.23028659 0.74
0.52 0.23028659 0.94
0.52 0.23028659 1.14
0.52 0.23028659 1.34
0.7 0.24061209 0.5
0.7 0.24061209 0.7
0.7 0.24061209 0.9
0.7 0.24061209 1.1
0.7 0.24061209 1.3
0.705 0.22040553 0.51
0.705 0.22040553 0.71
0.705 0.22040553 0.91
0.705 0.22040553 1.11
0.705 0.22040553 1.31
0.71 0.20445512 0.52
0.71 0.20445512 0.72
0.71 0.20445512 0.92
0.71 0.20445512 1.12
0.71 0.20445512 1.32
0.715 0.21074978 0.53
0.715 0.21074978 0.73
0.715 0.21074978 0.93
0.715 0.21074978 1.13
0.715 0.21074978 1.33
0.72 0.23028659 0.54
0.72 0.23028659 0.74
0.72 0.23028659 0.94
0.72 0.23028659 1.14
0.72 0.23028659 1.34
0.9 0.24061209 0.5
0.9 0.24061209 0.7
0.9 0.24061209 0.9
0.9 0.24061209 1.1
0.9 0.24061209 1.3
0.905 0.22040553 0.51
0.905 0.22040553 0.71
0.905 0.22040553 0.91
0.905 0.22040553 1.11
0.905 0.22040553 1.31
0.91 0.20445512 0.52
0.91 0.20445512 0.72
0.91 0.20445512 0.92
0.91 0.20445512 1.12
0.91 0.20445512 1.32
0.915 0.21074978 0.53
0.915 0.21074978 0.73
0.915 0.21074978 0.93
0.915 0.21074978 1.13
0.915 0.21074978 1.33
0.92 0.23028659 0.54
0.92 0.23028659 0.74
0.92 0.23028659 0.94
0.92 0.23028659 1.14
0.92 0.23028659 1.34
1.1 0.24061209 0.5
1.1 0.24061209 0.7
1.1 0.24061209 0.9
1.1 0.24061209 1.1
1.1 0.24061209 1.3
1.105 0.22040553 0.51
1.105 0.22040553 0.71
1.105 0.22040553 0.91
1.105 0.22040553 1.11
1.105 0.22040553 1.31
1.11 0.20445512 0.52
1.11 0.20445512 0.72
1.11 0.20445512 0.92
1.11 0.20445512 1.12
1.11 0.20445512 1.32
1.115 0.21074978 0.53
1.115 0.21074978 0.73
1.115 0.21074978 0.93
1.115 0.21074978 1.13
1.115 0.21074978 1.33
1.12 0.23028659 0.54
1.12 0.23028659 0.74
1.12 0.23028659 0.94
1.12 0.23028659 1.14
1.12 0.23028659 1.34
1.3 0.24061209 0.5
1.3 0.24061209 0.7
1.3 0.24061209 0.9
1.3 0.24061209 1.1
1.3 0.24061209 1.3
1.305 0.22040553 0.51
1.305 0.22040553 0.71
1.305 0.22040553 0.91
1.305 0.22040553 1.11
1.305 0.22040553 1.31
1.31 0.20445512 0.52
1.31 0.20445512 0.72
1.31 0.20445512 0.92
1.31 0.20445512 1.12
1.31 0.20445512 1.32
1.315 0.21074978 0.53
1.315 0.21074978 0.73
1.315 0.21074978 0.93
1.315 0.21074978 1.13
1.315 0.21074978 1.33
1.32 0.23028659 0.54
1.32 0.23028659 0.74
1.32 0.23028659 0.94
1.32 0.23028659 1.14
1.32 0.23028659 1.34
CELLS 0 0
CELL_TYPES 0
POINT_DATA 125
SCALARS m double
LOOKUP_TABLE default
1
1
1
1
1
1
1
1
1
1
1
1
1
1
1
1
1
1
1
1
1
1
1
1
1
1
1
1
1
1
1
1
1
1
1
1
1
1
1
1
1
1
1
1
1
1
1
1
1
1
1
1
1
1
1
1
1
1
1
1
1
1
1
1
1
1
1
1
1
1
1
1
1
1
1
1
1
1
1
1
1
1
1
1
1
1
1
1
1
1
1
1
1
1
1
1
1
1
1
1
1
1
1
1
1
1
1
1
1
1
1
1
1
1
1
1
1
1
1
1
1
1
1
1
1
SCALARS r double
LOOKUP_TABLE default
0.1
0.1
0.1
0.1
0.1
0.1
0.1
0.1
0.1
0.1
0.1
0.1
0.1
0.1
0.1
0.1
0.1
0.1
0.1
0.1
0.1
0.1
0.1
0.1
0.1
0.1
0.1
0.1
0.1
0.1
0.1
0.1
0.1
0.1
0.1
0.1
0.1
0.1
0.1
0.1
0.1
0.1
0.1
0.1
0.1
0.1
0.1
0.1
0.1
0.1
0.1
0.1
0.1
0.1
0.1
0.1
0.1
0.1
0.1
0.1
0.1
0.1
0.1
0.1
0.1
0.1
0.1
0.1
0.1
0.1
0.1
0.1
0.1
0.1
0.1
0.1
0.1
0.1
0.1
0.1
0.1
0.1
0.1
0.1
0.1
0.1
0.1
0.1
0.1
0.1
0.1
0.1
0.1
0.1
0.1
0.1
0.1
0.1
0.1
0.1
0.1
0.1
0.1
0.1
0.1
0.1
0.1
0.1
0.1
0.1
0.1
0.1
0.1
0.1
0.1
0.1
0.1
0.1
0.1
0.1
0.1
0.1
0.1
0.1
0.1
VECTORS v double
3.9098147e-19 0.1915313 3.9098147e-19
3.9098147e-19 0.1915313 5.4737406e-19
3.9098147e-19 0.1915313 7.0376664e-19
3.9098147e-19 0.1915313 8.6015923e-19
3.9098147e-19 0.1915313 1.0165518e-18
2.3866299e-20 0.3238147 2.4102599e-20
2.3866299e-20 0.3238147 3.3554599e-20
2.3866299e-20 0.3238147 4.3006599e-20
2.3866299e-20 0.3238147 5.2458598e-20
2.3866299e-20 0.3238147 6.1910598e-20
3.0802345e-19 0.12819044 3.1406313e-19
3.0802345e-19 0.12819044 4.3485664e-19
3.0802345e-19 0.12819044 5.5565015e-19
3.0802345e-19 0.12819044 6.7644367e-19
3.0802345e-19 0.12819044 7.9723718e-19
-1.1758624e-19 -0.28743427 -1.2101108e-19
-1.1758624e-19 -0.28743427 -1.6667564e-19
-1.1758624e-19 -0.28743427 -2.123402e-19
-1.1758624e-19 -0.28743427 -2.5800476e-19
-1.1758624e-19 -0.28743427 -3.0366932e-19
-3.5994104e-20 0.26806726 -3.7378493e-20
-3.5994104e-20 0.26806726 -5.1222379e-20
-3.5994104e-20 0.26806726 -6.5066266e-20
-3.5994104e-20 0.26806726 -7.8910152e-20
-3.5994104e-20 0.26806726 -9.2754038e-20
5.4737406e-19 0.1915313 3.9098147e-19
5.4737406e-19 0.1915313 5.4737406e-19
5.4737406e-19 0.1915313 7.0376664e-19
5.4737406e-19 0.1915313 8.6015923e-19
5.4737406e-19 0.1915313 1.0165518e-18
3.3318299e-20 0.3238147 2.4102599e-20
3.3318299e-20 0.3238147 3.3554599e-20
3.3318299e-20 0.3238147 4.3006599e-20
3.3318299e-20 0.3238147 5.2458598e-20
3.3318299e-20 0.3238147 6.1910598e-20
4.2881697e-19 0.12819044 3.1406313e-19
4.2881697e-19 0.12819044 4.3485664e-19
4.2881697e-19 0.12819044 5.5565015e-19
4.2881697e-19 0.12819044 6.7644367e-19
4.2881697e-19 0.12819044 7.9723718e-19
-1.632508e-19 -0.28743427 -1.2101108e-19
-1.632508e-19 -0.28743427 -1.6667564e-19
-1.632508e-19 -0.28743427 -2.123402e-19
-1.632508e-19 -0.28743427 -2.5800476e-19
-1.632508e-19 -0.28743427 -3.0366932e-19
-4.9837991e-20 0.26806726 -3.7378493e-20
-4.9837991e-20 0.26806726 -5.1222379e-20
-4.9837991e-20 0.26806726 -6.5066266e-20
-4.9837991e-20 0.26806726 -7.8910152e-20
-4.9837991e-20 0.26806726 -9.2754038e-20
7.0376664e-19 0.1915313 3.9098147e-19
7.0376664e-19 0.1915313 5.4737406e-19
7.0376664e-19 0.1915313 7.0376664e-19
7.0376664e-19 0.1915313 8.6015923e-19
7.0376664e-19 0.1915313 1.0165518e-18
4.2770299e-20 0.3238147 2.4102599e-20
4.2770299e-20 0.3238147 3.3554599e-20
4.2770299e-20 0.3238147 4.3006599e-20
4.2770299e-20 0.3238147 5.2458598e-20
4.2770299e-20 0.3238147 6.1910598e-20
5.4961048e-19 0.12819044 3.1406313e-19
5.4961048e-19 0.12819044 4.3485664e-19
5.4961048e-19 0.12819044 5.5565015e-19
5.4961048e-19 0.12819044 6.7644367e-19
5.4961048e-19 0.12819044 7.9723718e-19
-2.0891536e-19 -0.28743427 -1.2101108e-19
-2.0891536e-19 -0.28743427 -1.6667564e-19
-2.0891536e-19 -0.28743427 -2.123402e-19
-2.0891536e-19 -0.28743427 -2.5800476e-19
-2.0891536e-19 -0.28743427 -3.0366932e-19
-6.3681877e-20 0.26806726 -3.7378493e-20
-6.3681877e-20 0.26806726 -5.1222379e-20
-6.3681877e-20 0.26806726 -6.5066266e-20
-6.3681877e-20 0.26806726 -7.8910152e-20
-6.3681877e-20 0.26806726 -9.2754038e-20
8.6015923e-19 0.1915313 3.9098147e-19
8.6015923e-19 0.1915313 5.4737406e-19
8.6015923e-19 0.1915313 7.0376664e-19
8.6015923e-19 0.1915313 8.6015923e-19
8.6015923e-19 0.1915313 1.0165518e-18
5.2222298e-20 0.3238147 2.4102599e-20
5.2222298e-20 0.3238147 3.3554599e-20
5.2222298e-20 0.3238147 4.3006599e-20
5.2222298e-20 0.3238147 5.2458598e-20
5.2222298e-20 0.3238147 6.1910598e-20
6.7040399e-19 0.12819044 3.1406313e-19
6.7040399e-19 0.12819044 4.3485664e-19
6.7040399e-19 0.12819044 5.5565015e-19
6.7040399e-19 0.12819044 6.7644367e-19
6.7040399e-19 0.12819044 7.9723718e-19
-2.5457992e-19 -0.28743427 -1.2101108e-19
-2.5457992e-19 -0.28743427 -1.6667564e-19
-2.5457992e-19 -0.28743427 -2.123402e-19
-2.5457992e-19 -0.28743427 -2.5800476e-19
-2.5457992e-19 -0.28743427 -3.0366932e-19
-7.7525763e-20 0.26806726 -3.7378493e-20
-7.7525763e-20 0.26806726 -5.1222379e-20
-7.7525763e-20 0.26806726 -6.5066266e-20
-7.7525763e-20 0.26806726 -7.8910152e-20
-7.7525763e-20 0.26806726 -9.2754038e-20
1.0165518e-18 0.1915313 3.9098147e-19
1.0165518e-18 0.1915313 5.4737406e-19
1.0165518e-18 0.1915313 7.0376664e-19
1.0165518e-18 0.1915313 8.6015923e-19
1.0165518e-18 0.1915313 1.0165518e-18
6.1674298e-20 0.3238147 2.4102599e-20
6.1674298e-20 0.3238147 3.3554599e-20
6.1674298e-20 0.3238147 4.3006599e-20
6.1674298e-20 0.3238147 5.2458598e-20
6.1674298e-20 0.3238147 6.1910598e-20
7.911975e-19 0.12819044 3.1406313e-19
7.911975e-19 0.12819044 4.3485664e-19
7.911975e-19 0.12819044 5.5565015e-19
7.911975e-19 0.12819044 6.7644367e-19
7.911975e-19 0.12819044 7.9723718e-19
-3.0024448e-19 -0.28743427 -1.2101108e-19
-3.0024448e-19 -0.28743427 -1.6667564e-19
-3.0024448e-19 -0.28743427 -2.123402e-19
-3.0024448e-19 -0.28743427 -2.5800476e-19
-3.0024448e-19 -0.28743427 -3.0366932e-19
-9.136965e-20 0.26806726 -3.7378493e-20
-9.136965e-20 0.26806726 -5.1222379e-20
-9.136965e-20 0.26806726 -6.5066266e-20
-9.136965e-20 0.26806726 -7.8910152e-20
-9.136965e-20 0.26806726 -9.2754038e-20
VECTORS q double
1 -2.1296785e-13 7.2069828e-29
1 -2.1296785e-13 1.0089598e-28
1 -2.1296785e-13 1.2971952e-28
1 -2.1296785e-13 1.5855166e-28
1 -2.1296785e-13 1.8738231e-28
1 -3.7925764e-15 6.7936462e-32
1 -3.7925764e-15 9.4788765e-32
1 -3.7925764e-15 1.2134057e-31
1 -3.7925764e-15 1.482589e-31
1 -3.7925764e-15 1.7452169e-31
1 -1.8073409e-13 4.8853834e-29
1 -1.8073409e-13 6.764584e-29
1 -1.8073409e-13 8.641493e-29
1 -1.8073409e-13 1.0521607e-28
1 -1.8073409e-13 1.2403933e-28
1 1.1031506e-13 1.4321389e-29
1 1.1031506e-13 1.9711098e-29
1 1.1031506e-13 2.5132431e-29
1 1.1031506e-13 3.0540335e-29
1 1.1031506e-13 3.5924589e-29
1 3.3153523e-14 1.2286863e-30
1 3.3153523e-14 1.6764554e-30
1 3.3153523e-14 2.1345059e-30
1 3.3153523e-14 2.5858001e-30
1 3.3153523e-14 3.0367507e-30
1 -2.9815499e-13 1.009001e-28
1 -2.9815499e-13 1.4125857e-28
1 -2.9815499e-13 1.8161159e-28
1 -2.9815499e-13 2.2197631e-28
1 -2.9815499e-13 2.6233572e-28
1 -5.2945869e-15 9.495947e-32
1 -5.2945869e-15 1.3243668e-31
1 -5.2945869e-15 1.6956167e-31
1 -5.2945869e-15 2.0733245e-31
1 -5.2945869e-15 2.4378916e-31
1 -2.516102e-13 6.8002644e-29
1 -2.516102e-13 9.4161241e-29
1 -2.516102e-13 1.2029215e-28
1 -2.516102e-13 1.4646345e-28
1 -2.516102e-13 1.7266175e-28
1 1.5315586e-13 1.9884462e-29
1 1.5315586e-13 2.7367946e-29
1 1.5315586e-13 3.4896109e-29
1 1.5315586e-13 4.2406104e-29
1 1.5315586e-13 4.988191e-29
1 4.5904878e-14 1.7011432e-30
1 4.5904878e-14 2.3215836e-30
1 4.5904878e-14 2.9574446e-30
1 4.5904878e-14 3.5823277e-30
1 4.5904878e-14 4.2056496e-30
1 -3.8334212e-13 1.2973244e-28
1 -3.8334212e-13 1.8161555e-28
1 -3.8334212e-13 2.3350814e-28
1 -3.8334212e-13 2.8540664e-28
1 -3.8334212e-13 3.3729698e-28
1 -6.7965974e-15 1.220748e-31
1 -6.7965974e-15 1.7030479e-31
1 -6.7965974e-15 2.178876e-31
1 -6.7965974e-15 2.6644908e-31
1 -6.7965974e-15 3.1358637e-31
1 -3.2248631e-13 8.7194266e-29
1 -3.2248631e-13 1.2073463e-28
1 -3.2248631e-13 1.5423163e-28
1 -3.2248631e-13 1.877925e-28
1 -3.2248631e-13 2.2138751e-28
1 1.9599666e-13 2.5442003e-29
1 1.9599666e-13 3.5016789e-29
1 1.9599666e-13 4.4647194e-29
1 1.9599666e-13 5.4257197e-29
1 1.9599666e-13 6.381992e-29
1 5.8656232e-14 2.1749507e-30
1 5.8656232e-14 2.9677019e-30
1 5.8656232e-14 3.7794282e-30
1 5.8656232e-14 4.5773169e-30
1 5.8656232e-14 5.375691e-30
1 -4.6852926e-13 1.5855489e-28
1 -4.6852926e-13 2.2197536e-28
1 -4.6852926e-13 2.8538962e-28
1 -4.6852926e-13 3.4881884e-28
1 -4.6852926e-13 4.1223219e-28
1 -8.2986078e-15 1.4902245e-31
1 -8.2986078e-15 2.0786914e-31
1 -8.2986078e-15 2.658753e-31
1 -8.2986078e-15 3.2521137e-31
1 -8.2986078e-15 3.8248769e-31
1 -3.9336242e-13 1.0636328e-28
1 -3.9336242e-13 1.4727376e-28
1 -3.9336242e-13 1.8813929e-28
1 -3.9336242e-13 2.2907959e-28
1 -3.9336242e-13 2.7005757e-28
1 2.3883745e-13 3.1009381e-29
1 2.3883745e-13 4.2677968e-29
1 2.3883745e-13 5.4417515e-29
1 2.3883745e-13 6.6128042e-29
1 2.3883745e-13 7.7784447e-29
1 7.1407587e-14 2.6471754e-30
1 7.1407587e-14 3.6120929e-30
1 7.1407587e-14 4.6010886e-30
1 7.1407587e-14 5.5720614e-30
1 7.1407587e-14 6.5444748e-30
1 -5.537164e-13 1.8737975e-28
1 -5.537164e-13 2.6233331e-28
1 -5.537164e-13 3.3726794e-28
1 -5.537164e-13 4.1223959e-28
1 -5.537164e-13 4.8720763e-28
1 -9.8006183e-15 1.7613432e-31
1 -9.8006183e-15 2.4566953e-31
1 -9.8006183e-15 3.1461595e-31
1 -9.8006183e-15 3.842655e-31
1 -9.8006183e-15 4.522401e-31
1 -4.6423853e-13 1.2550332e-28
1 -4.6423853e-13 1.7378329e-28
1 -4.6423853e-13 2.2199525e-28
1 -4.6423853e-13 2.7030636e-28
1 -4.6423853e-13 3.186571e-28
1 2.8167825e-13 3.6568319e-29
1 2.8167825e-13 5.0338547e-29
1 2.8167825e-13 6.4176935e-29
1 2.8167825e-13 7.7987685e-29
1 2.8167825e-13 9.1737356e-29
1 8.4158942e-14 3.1253495e-30
1 8.4158942e-14 4.2654422e-30
1 8.4158942e-14 5.4303829e-30
1 8.4158942e-14 6.5778305e-30
1 8.4158942e-14 7.7253732e-30
