# vtk DataFile Version 4.0
hesp visualization file
ASCII
DATASET UNSTRUCTURED_GRID
POINTS 125 double
0.5 0.28382129 0.5
0.5 0.28382129 0.7
0.5 0.28382129 0.9
0.5 0.28382129 1.1
0.5 0.28382129 1.3
0.505 0.34176982 0.51
0.505 0.34176982 0.71
0.505 0.34176982 0.91
0.505 0.34176982 1.11
0.505 0.34176982 1.31
0.51 0.22111585 0.52
0.51 0.22111585 0.72
0.51 0.22111585 0.92
0.51 0.22111585 1.12
0.51 0.22111585 1.32
0.515 0.21448581 0.53
0.515 0.21448581 0.73
0.515 0.21448581 0.93
0.515 0.21448581 1.13
0.515 0.21448581 1.33
0.52 0.21303977 0.54
0.52 0.21303977 0.74
0.52 0.21303977 0.94
0.52 0.21303977 1.14
0.52 0.21303977 1.34
0.7 0.28382129 0.5
0.7 0.28382129 0.7
0.7 0.28382129 0.9
0.7 0.28382129 1.1
0.7 0.28382129 1.3
0.705 0.34176982 0.51
0.705 0.34176982 0.71
0.705 0.34176982 0.91
0.705 0.34176982 1.11
0.705 0.34176982 1.31
0.71 0.22111585 0.52
0.71 0.22111585 0.72
0.71 0.22111585 0.92
0.71 0.22111585 1.12
0.71 0.22111585 1.32
0.715 0.21448581 0.53
0.715 0.21448581 0.73
0.715 0.21448581 0.93
0.715 0.21448581 1.13
0.715 0.21448581 1.33
0.72 0.21303977 0.54
0.72 0.21303977 0.74
0.72 0.21303977 0.94
0.72 0.21303977 1.14
0.72 0.21303977 1.34
0.9 0.28382129 0.5
0.9 0.28382129 0.7
0.9 0.28382129 0.9
0.9 0.28382129 1.1
0.9 0.28382129 1.3
0.905 0.34176982 0.51
0.905 0.34176982 0.71
0.905 0.34176982 0.91
0.905 0.34176982 1.11
0.905 0.34176982 1.31
0.91 0.22111585 0.52
0.91 0.22111585 0.72
0.91 0.22111585 0.92
0.91 0.22111585 1.12
0.91 0.22111585 1.32
0.915 0.21448581 0.53
0.915 0.21448581 0.73
0.915 0.21448581 0.93
0.915 0.21448581 1.13
0.915 0.21448581 1.33
0.92 0.21303977 0.54
0.92 0.21303977 0.74
0.92 0.21303977 0.94
0.92 0.21303977 1.14
0.92 0.21303977 1.34
1.1 0.28382129 0.5
1.1 0.28382129 0.7
1.1 0.28382129 0.9
1.1 0.28382129 1.1
1.1 0.28382129 1.3
1.105 0.34176982 0.51
1.105 0.34176982 0.71
1.105 0.34176982 0.91
1.105 0.34176982 1.11
1.105 0.34176982 1.31
1.11 0.22111585 0.52
1.11 0.22111585 0.72
1.11 0.22111585 0.92
1.11 0.22111585 1.12
1.11 0.22111585 1.32
1.115 0.21448581 0.53
1.115 0.21448581 0.73
1.115 0.21448581 0.93
1.115 0.21448581 1.13
1.115 0.21448581 1.33
1.12 0.21303977 0.54
1.12 0.21303977 0.74
1.12 0.21303977 0.94
1.12 0.21303977 1.14
1.12 0.21303977 1.34
1.3 0.28382129 0.5
1.3 0.28382129 0.7
1.3 0.28382129 0.9
1.3 0.28382129 1.1
1.3 0.28382129 1.3
1.305 0.34176982 0.51
1.305 0.34176982 0.71
1.305 0.34176982 0.91
1.305 0.34176982 1.11
1.305 0.34176982 1.31
1.31 0.22111585 0.52
1.31 0.22111585 0.72
1.31 0.22111585 0.92
1.31 0.22111585 1.12
1.31 0.22111585 1.32
1.315 0.21448581 0.53
1.315 0.21448581 0.73
1.315 0.21448581 0.93
1.315 0.21448581 1.13
1.315 0.21448581 1.33
1.32 0.21303977 0.54
1.32 0.21303977 0.74
1.32 0.21303977 0.94
1.32 0.21303977 1.14
1.32 0.21303977 1.34
CELLS 0 0
CELL_TYPES 0
POINT_DATA 125
SCALARS m double
LOOKUP_TABLE default
1
1
1
1
1
1
1
1
1
1
1
1
1
1
1
1
1
1
1
1
1
1
1
1
1
1
1
1
1
1
1
1
1
1
1
1
1
1
1
1
1
1
1
1
1
1
1
1
1
1
1
1
1
1
1
1
1
1
1
1
1
1
1
1
1
1
1
1
1
1
1
1
1
1
1
1
1
1
1
1
1
1
1
1
1
1
1
1
1
1
1
1
1
1
1
1
1
1
1
1
1
1
1
1
1
1
1
1
1
1
1
1
1
1
1
1
1
1
1
1
1
1
1
1
1
SCALARS r double
LOOKUP_TABLE default
0.1
0.1
0.1
0.1
0.1
0.1
0.1
0.1
0.1
0.1
0.1
0.1
0.1
0.1
0.1
0.1
0.1
0.1
0.1
0.1
0.1
0.1
0.1
0.1
0.1
0.1
0.1
0.1
0.1
0.1
0.1
0.1
0.1
0.1
0.1
0.1
0.1
0.1
0.1
0.1
0.1
0.1
0.1
0.1
0.1
0.1
0.1
0.1
0.1
0.1
0.1
0.1
0.1
0.1
0.1
0.1
0.1
0.1
0.1
0.1
0.1
0.1
0.1
0.1
0.1
0.1
0.1
0.1
0.1
0.1
0.1
0.1
0.1
0.1
0.1
0.1
0.1
0.1
0.1
0.1
0.1
0.1
0.1
0.1
0.1
0.1
0.1
0.1
0.1
0.1
0.1
0.1
0.1
0.1
0.1
0.1
0.1
0.1
0.1
0.1
0.1
0.1
0.1
0.1
0.1
0.1
0.1
0.1
0.1
0.1
0.1
0.1
0.1
0.1
0.1
0.1
0.1
0.1
0.1
0.1
0.1
0.1
0.1
0.1
0.1
VECTORS v double
1.6586715e-18 -0.0078183479 1.6586715e-18
1.6586715e-18 -0.0078183479 2.3221401e-18
1.6586715e-18 -0.0078183479 2.9856087e-18
1.6586715e-18 -0.0078183479 3.6490773e-18
1.6586715e-18 -0.0078183479 4.3125459e-18
7.3759961e-19 0.071442954 7.4490258e-19
7.3759961e-19 0.071442954 1.0370212e-18
7.3759961e-19 0.071442954 1.3291399e-18
7.3759961e-19 0.071442954 1.6212586e-18
7.3759961e-19 0.071442954 1.9133772e-18
1.5206319e-18 -0.28983435 1.5504482e-18
1.5206319e-18 -0.28983435 2.1467745e-18
1.5206319e-18 -0.28983435 2.7431007e-18
1.5206319e-18 -0.28983435 3.3394269e-18
1.5206319e-18 -0.28983435 3.9357532e-18
-1.9371627e-19 0.30925452 -1.993585e-19
-1.9371627e-19 0.30925452 -2.7458812e-19
-1.9371627e-19 0.30925452 -3.4981774e-19
-1.9371627e-19 0.30925452 -4.2504736e-19
-1.9371627e-19 0.30925452 -5.0027698e-19
1.0296442e-19 0.12794244 1.0692459e-19
1.0296442e-19 0.12794244 1.4652629e-19
1.0296442e-19 0.12794244 1.8612799e-19
1.0296442e-19 0.12794244 2.2572969e-19
1.0296442e-19 0.12794244 2.6533139e-19
2.3221401e-18 -0.0078183479 1.6586715e-18
2.3221401e-18 -0.0078183479 2.3221401e-18
2.3221401e-18 -0.0078183479 2.9856087e-18
2.3221401e-18 -0.0078183479 3.6490773e-18
2.3221401e-18 -0.0078183479 4.3125459e-18
1.0297183e-18 0.071442954 7.4490258e-19
1.0297183e-18 0.071442954 1.0370212e-18
1.0297183e-18 0.071442954 1.3291399e-18
1.0297183e-18 0.071442954 1.6212586e-18
1.0297183e-18 0.071442954 1.9133772e-18
2.1169581e-18 -0.28983435 1.5504482e-18
2.1169581e-18 -0.28983435 2.1467745e-18
2.1169581e-18 -0.28983435 2.7431007e-18
2.1169581e-18 -0.28983435 3.3394269e-18
2.1169581e-18 -0.28983435 3.9357532e-18
-2.6894589e-19 0.30925452 -1.993585e-19
-2.6894589e-19 0.30925452 -2.7458812e-19
-2.6894589e-19 0.30925452 -3.4981774e-19
-2.6894589e-19 0.30925452 -4.2504736e-19
-2.6894589e-19 0.30925452 -5.0027698e-19
1.4256612e-19 0.12794244 1.0692459e-19
1.4256612e-19 0.12794244 1.4652629e-19
1.4256612e-19 0.12794244 1.8612799e-19
1.4256612e-19 0.12794244 2.2572969e-19
1.4256612e-19 0.12794244 2.6533139e-19
2.9856087e-18 -0.0078183479 1.6586715e-18
2.9856087e-18 -0.0078183479 2.3221401e-18
2.9856087e-18 -0.0078183479 2.9856087e-18
2.9856087e-18 -0.0078183479 3.6490773e-18
2.9856087e-18 -0.0078183479 4.3125459e-18
1.3218369e-18 0.071442954 7.4490258e-19
1.3218369e-18 0.071442954 1.0370212e-18
1.3218369e-18 0.071442954 1.3291399e-18
1.3218369e-18 0.071442954 1.6212586e-18
1.3218369e-18 0.071442954 1.9133772e-18
2.7132844e-18 -0.28983435 1.5504482e-18
2.7132844e-18 -0.28983435 2.1467745e-18
2.7132844e-18 -0.28983435 2.7431007e-18
2.7132844e-18 -0.28983435 3.3394269e-18
2.7132844e-18 -0.28983435 3.9357532e-18
-3.4417551e-19 0.30925452 -1.993585e-19
-3.4417551e-19 0.30925452 -2.7458812e-19
-3.4417551e-19 0.30925452 -3.4981774e-19
-3.4417551e-19 0.30925452 -4.2504736e-19
-3.4417551e-19 0.30925452 -5.0027698e-19
1.8216782e-19 0.12794244 1.0692459e-19
1.8216782e-19 0.12794244 1.4652629e-19
1.8216782e-19 0.12794244 1.8612799e-19
1.8216782e-19 0.12794244 2.2572969e-19
1.8216782e-19 0.12794244 2.6533139e-19
3.6490773e-18 -0.0078183479 1.6586715e-18
3.6490773e-18 -0.0078183479 2.3221401e-18
3.6490773e-18 -0.0078183479 2.9856087e-18
3.6490773e-18 -0.0078183479 3.6490773e-18
3.6490773e-18 -0.0078183479 4.3125459e-18
1.6139556e-18 0.071442954 7.4490258e-19
1.6139556e-18 0.071442954 1.0370212e-18
1.6139556e-18 0.071442954 1.3291399e-18
1.6139556e-18 0.071442954 1.6212586e-18
1.6139556e-18 0.071442954 1.9133772e-18
3.3096106e-18 -0.28983435 1.5504482e-18
3.3096106e-18 -0.28983435 2.1467745e-18
3.3096106e-18 -0.28983435 2.7431007e-18
3.3096106e-18 -0.28983435 3.3394269e-18
3.3096106e-18 -0.28983435 3.9357532e-18
-4.1940514e-19 0.30925452 -1.993585e-19
-4.1940514e-19 0.30925452 -2.7458812e-19
-4.1940514e-19 0.30925452 -3.4981774e-19
-4.1940514e-19 0.30925452 -4.2504736e-19
-4.1940514e-19 0.30925452 -5.0027698e-19
2.2176952e-19 0.12794244 1.0692459e-19
2.2176952e-19 0.12794244 1.4652629e-19
2.2176952e-19 0.12794244 1.8612799e-19
2.2176952e-19 0.12794244 2.2572969e-19
2.2176952e-19 0.12794244 2.6533139e-19
4.3125459e-18 -0.0078183479 1.6586715e-18
4.3125459e-18 -0.0078183479 2.3221401e-18
4.3125459e-18 -0.0078183479 2.9856087e-18
4.3125459e-18 -0.0078183479 3.6490773e-18
4.3125459e-18 -0.0078183479 4.3125459e-18
1.9060743e-18 0.071442954 7.4490258e-19
1.9060743e-18 0.071442954 1.0370212e-18
1.9060743e-18 0.071442954 1.3291399e-18
1.9060743e-18 0.071442954 1.6212586e-18
1.9060743e-18 0.071442954 1.9133772e-18
3.9059369e-18 -0.28983435 1.5504482e-18
3.9059369e-18 -0.28983435 2.1467745e-18
3.9059369e-18 -0.28983435 2.7431007e-18
3.9059369e-18 -0.28983435 3.3394269e-18
3.9059369e-18 -0.28983435 3.9357532e-18
-4.9463476e-19 0.30925452 -1.993585e-19
-4.9463476e-19 0.30925452 -2.7458812e-19
-4.9463476e-19 0.30925452 -3.4981774e-19
-4.9463476e-19 0.30925452 -4.2504736e-19
-4.9463476e-19 0.30925452 -5.0027698e-19
2.6137122e-19 0.12794244 1.0692459e-19
2.6137122e-19 0.12794244 1.4652629e-19
2.6137122e-19 0.12794244 1.8612799e-19
2.6137122e-19 0.12794244 2.2572969e-19
2.6137122e-19 0.12794244 2.6533139e-19
VECTORS q double
1 -2.6895169e-12 4.0573989e-27
1 -2.6895169e-12 5.6803002e-27
1 -2.6895169e-12 7.3031241e-27
1 -2.6895169e-12 8.9261855e-27
1 -2.6895169e-12 1.0549388e-26
1 -8.3651104e-13 5.6815208e-28
1 -8.3651104e-13 7.9107362e-28
1 -8.3651104e-13 1.0137306e-27
1 -8.3651104e-13 1.2367017e-27
1 -8.3651104e-13 1.4595067e-27
1 -2.3339953e-12 3.2581243e-27
1 -2.3339953e-12 4.5112334e-27
1 -2.3339953e-12 5.7643776e-27
1 -2.3339953e-12 7.0175784e-27
1 -2.3339953e-12 8.270976e-27
1 6.2116502e-13 1.1799235e-28
1 6.2116502e-13 1.6242573e-28
1 6.2116502e-13 2.0707183e-28
1 6.2116502e-13 2.5163429e-28
1 6.2116502e-13 2.9606715e-28
1 5.0149207e-14 -4.7195389e-30
1 5.0149207e-14 -6.5505381e-30
1 5.0149207e-14 -8.2395238e-30
1 5.0149207e-14 -1.0048151e-29
1 5.0149207e-14 -1.1821398e-29
1 -3.7653237e-12 5.6804091e-27
1 -3.7653237e-12 7.9525072e-27
1 -3.7653237e-12 1.0225121e-26
1 -3.7653237e-12 1.2497158e-26
1 -3.7653237e-12 1.4769652e-26
1 -1.1678025e-12 7.9308806e-28
1 -1.1678025e-12 1.1042801e-27
1 -1.1678025e-12 1.4151519e-27
1 -1.1678025e-12 1.7263321e-27
1 -1.1678025e-12 2.0373583e-27
1 -3.2492876e-12 4.536047e-27
1 -3.2492876e-12 6.2807381e-27
1 -3.2492876e-12 8.0253272e-27
1 -3.2492876e-12 9.770031e-27
1 -3.2492876e-12 1.1514815e-26
1 8.6239416e-13 1.6394047e-28
1 8.6239416e-13 2.2568454e-28
1 8.6239416e-13 2.8773627e-28
1 8.6239416e-13 3.496388e-28
1 8.6239416e-13 4.1132703e-28
1 6.9437364e-14 -6.5563584e-30
1 6.9437364e-14 -9.0974056e-30
1 6.9437364e-14 -1.143141e-29
1 6.9437364e-14 -1.3951864e-29
1 6.9437364e-14 -1.6420434e-29
1 -4.8411305e-12 7.3035083e-27
1 -4.8411305e-12 1.022416e-26
1 -4.8411305e-12 1.3145961e-26
1 -4.8411305e-12 1.6067561e-26
1 -4.8411305e-12 1.8989317e-26
1 -1.499094e-12 1.0181546e-27
1 -1.499094e-12 1.4176554e-27
1 -1.499094e-12 1.8166657e-27
1 -1.499094e-12 2.2162231e-27
1 -1.499094e-12 2.6154974e-27
1 -4.1645799e-12 5.8138495e-27
1 -4.1645799e-12 8.0500105e-27
1 -4.1645799e-12 1.0286024e-26
1 -4.1645799e-12 1.2522361e-26
1 -4.1645799e-12 1.475884e-26
1 1.1036233e-12 2.0968586e-28
1 1.1036233e-12 2.8865376e-28
1 1.1036233e-12 3.6799272e-28
1 1.1036233e-12 4.4719296e-28
1 1.1036233e-12 5.2614735e-28
1 8.8725521e-14 -8.3230917e-30
1 8.8725521e-14 -1.1549251e-29
1 8.8725521e-14 -1.4524497e-29
1 8.8725521e-14 -1.7723754e-29
1 8.8725521e-14 -2.0848618e-29
1 -5.9169373e-12 8.9263591e-27
1 -5.9169373e-12 1.2496439e-26
1 -5.9169373e-12 1.6067042e-26
1 -5.9169373e-12 1.9637808e-26
1 -5.9169373e-12 2.320887e-26
1 -1.8303855e-12 1.2430527e-27
1 -1.8303855e-12 1.7307937e-27
1 -1.8303855e-12 2.2179482e-27
1 -1.8303855e-12 2.7057478e-27
1 -1.8303855e-12 3.1932457e-27
1 -5.0798722e-12 7.0921022e-27
1 -5.0798722e-12 9.8198701e-27
1 -5.0798722e-12 1.2547474e-26
1 -5.0798722e-12 1.5275204e-26
1 -5.0798722e-12 1.800365e-26
1 1.3448524e-12 2.5564455e-28
1 1.3448524e-12 3.5191545e-28
1 1.3448524e-12 4.4866316e-28
1 1.3448524e-12 5.45203e-28
1 1.3448524e-12 6.4145214e-28
1 1.0801368e-13 -1.0161981e-29
1 1.0801368e-13 -1.4100243e-29
1 1.0801368e-13 -1.7729426e-29
1 1.0801368e-13 -2.1633462e-29
1 1.0801368e-13 -2.5446919e-29
1 -6.992744e-12 1.0549085e-26
1 -6.992744e-12 1.4768156e-26
1 -6.992744e-12 1.8987888e-26
1 -6.992744e-12 2.3207794e-26
1 -6.992744e-12 2.7428091e-26
1 -2.1616771e-12 1.4680671e-27
1 -2.1616771e-12 2.0440655e-27
1 -2.1616771e-12 2.6194301e-27
1 -2.1616771e-12 3.195551e-27
1 -2.1616771e-12 3.7712864e-27
1 -5.9951645e-12 8.3685816e-27
1 -5.9951645e-12 1.1587349e-26
1 -5.9951645e-12 1.4805888e-26
1 -5.9951645e-12 1.8025574e-26
1 -5.9951645e-12 2.1244192e-26
1 1.5860816e-12 3.0150577e-28
1 1.5860816e-12 4.1508587e-28
1 1.5860816e-12 5.2914684e-28
1 1.5860816e-12 6.4301588e-28
1 1.5860816e-12 7.5656616e-28
1 1.2730183e-13 -1.1906282e-29
1 1.2730183e-13 -1.6520269e-29
1 1.2730183e-13 -2.0777644e-29
1 1.2730183e-13 -2.5348507e-29
1 1.2730183e-13 -2.9821243e-29
