# vtk DataFile Version 4.0
hesp visualization file
ASCII
DATASET UNSTRUCTURED_GRID
POINTS 125 double
0.5 0.20020019 0.5
0.5 0.20020019 0.7
0.5 0.20020019 0.9
0.5 0.20020019 1.1
0.5 0.20020019 1.3
0.505 0.24647505 0.51
0.505 0.24647505 0.71
0.505 0.24647505 0.91
0.505 0.24647505 1.11
0.505 0.24647505 1.31
0.51 0.21245896 0.52
0.51 0.21245896 0.72
0.51 0.21245896 0.92
0.51 0.21245896 1.12
0.51 0.21245896 1.32
0.515 0.26474267 0.53
0.515 0.26474267 0.73
0.515 0.26474267 0.93
0.515 0.26474267 1.13
0.515 0.26474267 1.33
0.52 0.21973418 0.54
0.52 0.21973418 0.74
0.52 0.21973418 0.94
0.52 0.21973418 1.14
0.52 0.21973418 1.34
0.7 0.20020019 0.5
0.7 0.20020019 0.7
0.7 0.20020019 0.9
0.7 0.20020019 1.1
0.7 0.20020019 1.3
0.705 0.24647505 0.51
0.705 0.24647505 0.71
0.705 0.24647505 0.91
0.705 0.24647505 1.11
0.705 0.24647505 1.31
0.71 0.21245896 0.52
0.71 0.21245896 0.72
0.71 0.21245896 0.92
0.71 0.21245896 1.12
0.71 0.21245896 1.32
0.715 0.26474267 0.53
0.715 0.26474267 0.73
0.715 0.26474267 0.93
0.715 0.26474267 1.13
0.715 0.26474267 1.33
0.72 0.21973418 0.54
0.72 0.21973418 0.74
0.72 0.21973418 0.94
0.72 0.21973418 1.14
0.72 0.21973418 1.34
0.9 0.20020019 0.5
0.9 0.20020019 0.7
0.9 0.20020019 0.9
0.9 0.20020019 1.1
0.9 0.20020019 1.3
0.905 0.24647505 0.51
0.905 0.24647505 0.71
0.905 0.24647505 0.91
0.905 0.24647505 1.11
0.905 0.24647505 1.31
0.91 0.21245896 0.52
0.91 0.21245896 0.72
0.91 0.21245896 0.92
0.91 0.21245896 1.12
0.91 0.21245896 1.32
0.915 0.26474267 0.53
0.915 0.26474267 0.73
0.915 0.26474267 0.93
0.915 0.26474267 1.13
0.915 0.26474267 1.33
0.92 0.21973418 0.54
0.92 0.21973418 0.74
0.92 0.21973418 0.94
0.92 0.21973418 1.14
0.92 0.21973418 1.34
1.1 0.20020019 0.5
1.1 0.20020019 0.7
1.1 0.20020019 0.9
1.1 0.20020019 1.1
1.1 0.20020019 1.3
1.105 0.24647505 0.51
1.105 0.24647505 0.71
1.105 0.24647505 0.91
1.105 0.24647505 1.11
1.105 0.24647505 1.31
1.11 0.21245896 0.52
1.11 0.21245896 0.72
1.11 0.21245896 0.92
1.11 0.21245896 1.12
1.11 0.21245896 1.32
1.115 0.26474267 0.53
1.115 0.26474267 0.73
1.115 0.26474267 0.93
1.115 0.26474267 1.13
1.115 0.26474267 1.33
1.12 0.21973418 0.54
1.12 0.21973418 0.74
1.12 0.21973418 0.94
1.12 0.21973418 1.14
1.12 0.21973418 1.34
1.3 0.20020019 0.5
1.3 0.20020019 0.7
1.3 0.20020019 0.9
1.3 0.20020019 1.1
1.3 0.20020019 1.3
1.305 0.24647505 0.51
1.305 0.24647505 0.71
1.305 0.24647505 0.91
1.305 0.24647505 1.11
1.305 0.24647505 1.31
1.31 0.21245896 0.52
1.31 0.21245896 0.72
1.31 0.21245896 0.92
1.31 0.21245896 1.12
1.31 0.21245896 1.32
1.315 0.26474267 0.53
1.315 0.26474267 0.73
1.315 0.26474267 0.93
1.315 0.26474267 1.13
1.315 0.26474267 1.33
1.32 0.21973418 0.54
1.32 0.21973418 0.74
1.32 0.21973418 0.94
1.32 0.21973418 1.14
1.32 0.21973418 1.34
CELLS 0 0
CELL_TYPES 0
POINT_DATA 125
SCALARS m double
LOOKUP_TABLE default
1
1
1
1
1
1
1
1
1
1
1
1
1
1
1
1
1
1
1
1
1
1
1
1
1
1
1
1
1
1
1
1
1
1
1
1
1
1
1
1
1
1
1
1
1
1
1
1
1
1
1
1
1
1
1
1
1
1
1
1
1
1
1
1
1
1
1
1
1
1
1
1
1
1
1
1
1
1
1
1
1
1
1
1
1
1
1
1
1
1
1
1
1
1
1
1
1
1
1
1
1
1
1
1
1
1
1
1
1
1
1
1
1
1
1
1
1
1
1
1
1
1
1
1
1
SCALARS r double
LOOKUP_TABLE default
0.1
0.1
0.1
0.1
0.1
0.1
0.1
0.1
0.1
0.1
0.1
0.1
0.1
0.1
0.1
0.1
0.1
0.1
0.1
0.1
0.1
0.1
0.1
0.1
0.1
0.1
0.1
0.1
0.1
0.1
0.1
0.1
0.1
0.1
0.1
0.1
0.1
0.1
0.1
0.1
0.1
0.1
0.1
0.1
0.1
0.1
0.1
0.1
0.1
0.1
0.1
0.1
0.1
0.1
0.1
0.1
0.1
0.1
0.1
0.1
0.1
0.1
0.1
0.1
0.1
0.1
0.1
0.1
0.1
0.1
0.1
0.1
0.1
0.1
0.1
0.1
0.1
0.1
0.1
0.1
0.1
0.1
0.1
0.1
0.1
0.1
0.1
0.1
0.1
0.1
0.1
0.1
0.1
0.1
0.1
0.1
0.1
0.1
0.1
0.1
0.1
0.1
0.1
0.1
0.1
0.1
0.1
0.1
0.1
0.1
0.1
0.1
0.1
0.1
0.1
0.1
0.1
0.1
0.1
0.1
0.1
0.1
0.1
0.1
0.1
VECTORS v double
7.7634793e-19 0.35045186 7.7634793e-19
7.7634793e-19 0.35045186 1.0868871e-18
7.7634793e-19 0.35045186 1.3974263e-18
7.7634793e-19 0.35045186 1.7079654e-18
7.7634793e-19 0.35045186 2.0185046e-18
1.7299025e-19 -0.21441703 1.7470303e-19
1.7299025e-19 -0.21441703 2.4321402e-19
1.7299025e-19 -0.21441703 3.1172501e-19
1.7299025e-19 -0.21441703 3.80236e-19
1.7299025e-19 -0.21441703 4.4874699e-19
6.4058273e-19 -0.062469688 6.5314318e-19
6.4058273e-19 -0.062469688 9.0435209e-19
6.4058273e-19 -0.062469688 1.155561e-18
6.4058273e-19 -0.062469688 1.4067699e-18
6.4058273e-19 -0.062469688 1.6579788e-18
-1.7180116e-19 -0.11030558 -1.7680508e-19
-1.7180116e-19 -0.11030558 -2.4352398e-19
-1.7180116e-19 -0.11030558 -3.1024288e-19
-1.7180116e-19 -0.11030558 -3.7696178e-19
-1.7180116e-19 -0.11030558 -4.4368067e-19
-3.2158062e-20 -0.30153498 -3.3394911e-20
-3.2158062e-20 -0.30153498 -4.5763397e-20
-3.2158062e-20 -0.30153498 -5.8131882e-20
-3.2158062e-20 -0.30153498 -7.0500368e-20
-3.2158062e-20 -0.30153498 -8.2868853e-20
1.0868871e-18 0.35045186 7.7634793e-19
1.0868871e-18 0.35045186 1.0868871e-18
1.0868871e-18 0.35045186 1.3974263e-18
1.0868871e-18 0.35045186 1.7079654e-18
1.0868871e-18 0.35045186 2.0185046e-18
2.4150124e-19 -0.21441703 1.7470303e-19
2.4150124e-19 -0.21441703 2.4321402e-19
2.4150124e-19 -0.21441703 3.1172501e-19
2.4150124e-19 -0.21441703 3.80236e-19
2.4150124e-19 -0.21441703 4.4874699e-19
8.9179165e-19 -0.062469688 6.5314318e-19
8.9179165e-19 -0.062469688 9.0435209e-19
8.9179165e-19 -0.062469688 1.155561e-18
8.9179165e-19 -0.062469688 1.4067699e-18
8.9179165e-19 -0.062469688 1.6579788e-18
-2.3852006e-19 -0.11030558 -1.7680508e-19
-2.3852006e-19 -0.11030558 -2.4352398e-19
-2.3852006e-19 -0.11030558 -3.1024288e-19
-2.3852006e-19 -0.11030558 -3.7696178e-19
-2.3852006e-19 -0.11030558 -4.4368067e-19
-4.4526548e-20 -0.30153498 -3.3394911e-20
-4.4526548e-20 -0.30153498 -4.5763397e-20
-4.4526548e-20 -0.30153498 -5.8131882e-20
-4.4526548e-20 -0.30153498 -7.0500368e-20
-4.4526548e-20 -0.30153498 -8.2868853e-20
1.3974263e-18 0.35045186 7.7634793e-19
1.3974263e-18 0.35045186 1.0868871e-18
1.3974263e-18 0.35045186 1.3974263e-18
1.3974263e-18 0.35045186 1.7079654e-18
1.3974263e-18 0.35045186 2.0185046e-18
3.1001223e-19 -0.21441703 1.7470303e-19
3.1001223e-19 -0.21441703 2.4321402e-19
3.1001223e-19 -0.21441703 3.1172501e-19
3.1001223e-19 -0.21441703 3.80236e-19
3.1001223e-19 -0.21441703 4.4874699e-19
1.1430006e-18 -0.062469688 6.5314318e-19
1.1430006e-18 -0.062469688 9.0435209e-19
1.1430006e-18 -0.062469688 1.155561e-18
1.1430006e-18 -0.062469688 1.4067699e-18
1.1430006e-18 -0.062469688 1.6579788e-18
-3.0523896e-19 -0.11030558 -1.7680508e-19
-3.0523896e-19 -0.11030558 -2.4352398e-19
-3.0523896e-19 -0.11030558 -3.1024288e-19
-3.0523896e-19 -0.11030558 -3.7696178e-19
-3.0523896e-19 -0.11030558 -4.4368067e-19
-5.6895034e-20 -0.30153498 -3.3394911e-20
-5.6895034e-20 -0.30153498 -4.5763397e-20
-5.6895034e-20 -0.30153498 -5.8131882e-20
-5.6895034e-20 -0.30153498 -7.0500368e-20
-5.6895034e-20 -0.30153498 -8.2868853e-20
1.7079654e-18 0.35045186 7.7634793e-19
1.7079654e-18 0.35045186 1.0868871e-18
1.7079654e-18 0.35045186 1.3974263e-18
1.7079654e-18 0.35045186 1.7079654e-18
1.7079654e-18 0.35045186 2.0185046e-18
3.7852322e-19 -0.21441703 1.7470303e-19
3.7852322e-19 -0.21441703 2.4321402e-19
3.7852322e-19 -0.21441703 3.1172501e-19
3.7852322e-19 -0.21441703 3.80236e-19
3.7852322e-19 -0.21441703 4.4874699e-19
1.3942095e-18 -0.062469688 6.5314318e-19
1.3942095e-18 -0.062469688 9.0435209e-19
1.3942095e-18 -0.062469688 1.155561e-18
1.3942095e-18 -0.062469688 1.4067699e-18
1.3942095e-18 -0.062469688 1.6579788e-18
-3.7195786e-19 -0.11030558 -1.7680508e-19
-3.7195786e-19 -0.11030558 -2.4352398e-19
-3.7195786e-19 -0.11030558 -3.1024288e-19
-3.7195786e-19 -0.11030558 -3.7696178e-19
-3.7195786e-19 -0.11030558 -4.4368067e-19
-6.9263519e-20 -0.30153498 -3.3394911e-20
-6.9263519e-20 -0.30153498 -4.5763397e-20
-6.9263519e-20 -0.30153498 -5.8131882e-20
-6.9263519e-20 -0.30153498 -7.0500368e-20
-6.9263519e-20 -0.30153498 -8.2868853e-20
2.0185046e-18 0.35045186 7.7634793e-19
2.0185046e-18 0.35045186 1.0868871e-18
2.0185046e-18 0.35045186 1.3974263e-18
2.0185046e-18 0.35045186 1.7079654e-18
2.0185046e-18 0.35045186 2.0185046e-18
4.4703421e-19 -0.21441703 1.7470303e-19
4.4703421e-19 -0.21441703 2.4321402e-19
4.4703421e-19 -0.21441703 3.1172501e-19
4.4703421e-19 -0.21441703 3.80236e-19
4.4703421e-19 -0.21441703 4.4874699e-19
1.6454184e-18 -0.062469688 6.5314318e-19
1.6454184e-18 -0.062469688 9.0435209e-19
1.6454184e-18 -0.062469688 1.155561e-18
1.6454184e-18 -0.062469688 1.4067699e-18
1.6454184e-18 -0.062469688 1.6579788e-18
-4.3867676e-19 -0.11030558 -1.7680508e-19
-4.3867676e-19 -0.11030558 -2.4352398e-19
-4.3867676e-19 -0.11030558 -3.1024288e-19
-4.3867676e-19 -0.11030558 -3.7696178e-19
-4.3867676e-19 -0.11030558 -4.4368067e-19
-8.1632005e-20 -0.30153498 -3.3394911e-20
-8.1632005e-20 -0.30153498 -4.5763397e-20
-8.1632005e-20 -0.30153498 -5.8131882e-20
-8.1632005e-20 -0.30153498 -7.0500368e-20
-8.1632005e-20 -0.30153498 -8.2868853e-20
VECTORS q double
1 -7.1847472e-13 4.8813802e-28
1 -7.1847472e-13 6.8339303e-28
1 -7.1847472e-13 8.7864598e-28
1 -7.1847472e-13 1.0739066e-27
1 -7.1847472e-13 1.2692052e-27
1 -8.8701079e-14 1.5574817e-29
1 -8.8701079e-14 2.1687652e-29
1 -8.8701079e-14 2.7787692e-29
1 -8.8701079e-14 3.3911728e-29
1 -8.8701079e-14 4.0013351e-29
1 -5.8778139e-13 3.378933e-28
1 -5.8778139e-13 4.67846e-28
1 -5.8778139e-13 5.9774071e-28
1 -5.8778139e-13 7.2773188e-28
1 -5.8778139e-13 8.5780944e-28
1 2.6003568e-13 4.5957691e-29
1 2.6003568e-13 6.3262571e-29
1 2.6003568e-13 8.0652691e-29
1 2.6003568e-13 9.8004354e-29
1 2.6003568e-13 1.1530397e-28
1 6.8347485e-14 2.1125964e-30
1 6.8347485e-14 2.8704721e-30
1 6.8347485e-14 3.6687134e-30
1 6.8347485e-14 4.4333011e-30
1 6.8347485e-14 5.2074373e-30
1 -1.0058646e-12 6.8339341e-28
1 -1.0058646e-12 9.5675069e-28
1 -1.0058646e-12 1.2301618e-27
1 -1.0058646e-12 1.5034848e-27
1 -1.0058646e-12 1.7768871e-27
1 -1.2383022e-13 2.1738944e-29
1 -1.2383022e-13 3.0273223e-29
1 -1.2383022e-13 3.8786865e-29
1 -1.2383022e-13 4.7334231e-29
1 -1.2383022e-13 5.5850751e-29
1 -8.182839e-13 4.7040194e-28
1 -8.182839e-13 6.5132967e-28
1 -8.182839e-13 8.3216891e-28
1 -8.182839e-13 1.0131222e-27
1 -8.182839e-13 1.1941772e-27
1 3.6102041e-13 6.3818766e-29
1 3.6102041e-13 8.7851624e-29
1 3.6102041e-13 1.1200331e-28
1 3.6102041e-13 1.3609918e-28
1 3.6102041e-13 1.6012297e-28
1 9.463498e-14 2.9216016e-30
1 9.463498e-14 3.9708287e-30
1 9.463498e-14 5.0782522e-30
1 9.463498e-14 6.135766e-30
1 9.463498e-14 7.2036982e-30
1 -1.2932545e-12 8.7865333e-28
1 -1.2932545e-12 1.2300461e-27
1 -1.2932545e-12 1.5815688e-27
1 -1.2932545e-12 1.9330369e-27
1 -1.2932545e-12 2.2845524e-27
1 -1.5895936e-13 2.7911069e-29
1 -1.5895936e-13 3.8867605e-29
1 -1.5895936e-13 4.9798578e-29
1 -1.5895936e-13 6.0768666e-29
1 -1.5895936e-13 7.170704e-29
1 -1.0487864e-12 6.0297491e-28
1 -1.0487864e-12 8.348888e-28
1 -1.0487864e-12 1.0666714e-27
1 -1.0487864e-12 1.2986694e-27
1 -1.0487864e-12 1.5307672e-27
1 4.6200514e-13 8.1652963e-29
1 4.6200514e-13 1.1239994e-28
1 4.6200514e-13 1.4329665e-28
1 4.6200514e-13 1.7412919e-28
1 4.6200514e-13 2.0486145e-28
1 1.2092247e-13 3.7430796e-30
1 1.2092247e-13 5.0861687e-30
1 1.2092247e-13 6.5024998e-30
1 1.2092247e-13 7.8553095e-30
1 1.2092247e-13 9.2269257e-30
1 -1.5806444e-12 1.0738995e-27
1 -1.5806444e-12 1.5034522e-27
1 -1.5806444e-12 1.9330168e-27
1 -1.5806444e-12 2.3625874e-27
1 -1.5806444e-12 2.7922261e-27
1 -1.940885e-13 3.4068756e-29
1 -1.940885e-13 4.7441172e-29
1 -1.940885e-13 6.078193e-29
1 -1.940885e-13 7.4178471e-29
1 -1.940885e-13 8.7526191e-29
1 -1.2792889e-12 7.3555229e-28
1 -1.2792889e-12 1.0184476e-27
1 -1.2792889e-12 1.3012037e-27
1 -1.2792889e-12 1.5841951e-27
1 -1.2792889e-12 1.867331e-27
1 5.6298987e-13 9.9523639e-29
1 5.6298987e-13 1.3699642e-28
1 5.6298987e-13 1.7465595e-28
1 5.6298987e-13 2.1223427e-28
1 5.6298987e-13 2.496928e-28
1 1.4720997e-13 4.5521871e-30
1 1.4720997e-13 6.1861153e-30
1 1.4720997e-13 7.9102039e-30
1 1.4720997e-13 9.5547665e-30
1 1.4720997e-13 1.1224746e-29
1 -1.8680343e-12 1.2691122e-27
1 -1.8680343e-12 1.776748e-27
1 -1.8680343e-12 2.2843994e-27
1 -1.8680343e-12 2.7920722e-27
1 -1.8680343e-12 3.2998485e-27
1 -2.2921764e-13 4.0249314e-29
1 -2.2921764e-13 5.6047318e-29
1 -2.2921764e-13 7.1808165e-29
1 -2.2921764e-13 8.7632888e-29
1 -2.2921764e-13 1.034024e-28
1 -1.5097914e-12 8.6794097e-28
1 -1.5097914e-12 1.2017688e-27
1 -1.5097914e-12 1.535396e-27
1 -1.5097914e-12 1.8693968e-27
1 -1.5097914e-12 2.2034392e-27
1 6.639746e-13 1.1737329e-28
1 6.639746e-13 1.6158836e-28
1 6.639746e-13 2.0599094e-28
1 6.639746e-13 2.5030702e-28
1 6.639746e-13 2.9449376e-28
1 1.7349746e-13 5.3853086e-30
1 1.7349746e-13 7.3200544e-30
1 1.7349746e-13 9.3544222e-30
1 1.7349746e-13 1.130252e-29
1 1.7349746e-13 1.3276848e-29
