# vtk DataFile Version 4.0
hesp visualization file
ASCII
DATASET UNSTRUCTURED_GRID
POINTS 125 double
0.5 0.22142418 0.5
0.5 0.22142418 0.7
0.5 0.22142418 0.9
0.5 0.22142418 1.1
0.5 0.22142418 1.3
0.505 0.2619012 0.51
0.505 0.2619012 0.71
0.505 0.2619012 0.91
0.505 0.2619012 1.11
0.505 0.2619012 1.31
0.51 0.21190587 0.52
0.51 0.21190587 0.72
0.51 0.21190587 0.92
0.51 0.21190587 1.12
0.51 0.21190587 1.32
0.515 0.27027004 0.53
0.515 0.27027004 0.73
0.515 0.27027004 0.93
0.515 0.27027004 1.13
0.515 0.27027004 1.33
0.52 0.25234517 0.54
0.52 0.25234517 0.74
0.52 0.25234517 0.94
0.52 0.25234517 1.14
0.52 0.25234517 1.34
0.7 0.22142418 0.5
0.7 0.22142418 0.7
0.7 0.22142418 0.9
0.7 0.22142418 1.1
0.7 0.22142418 1.3
0.705 0.2619012 0.51
0.705 0.2619012 0.71
0.705 0.2619012 0.91
0.705 0.2619012 1.11
0.705 0.2619012 1.31
0.71 0.21190587 0.52
0.71 0.21190587 0.72
0.71 0.21190587 0.92
0.71 0.21190587 1.12
0.71 0.21190587 1.32
0.715 0.27027004 0.53
0.715 0.27027004 0.73
0.715 0.27027004 0.93
0.715 0.27027004 1.13
0.715 0.27027004 1.33
0.72 0.25234517 0.54
0.72 0.25234517 0.74
0.72 0.25234517 0.94
0.72 0.25234517 1.14
0.72 0.25234517 1.34
0.9 0.22142418 0.5
0.9 0.22142418 0.7
0.9 0.22142418 0.9
0.9 0.22142418 1.1
0.9 0.22142418 1.3
0.905 0.2619012 0.51
0.905 0.2619012 0.71
0.905 0.2619012 0.91
0.905 0.2619012 1.11
0.905 0.2619012 1.31
0.91 0.21190587 0.52
0.91 0.21190587 0.72
0.91 0.21190587 0.92
0.91 0.21190587 1.12
0.91 0.21190587 1.32
0.915 0.27027004 0.53
0.915 0.27027004 0.73
0.915 0.27027004 0.93
0.915 0.27027004 1.13
0.915 0.27027004 1.33
0.92 0.25234517 0.54
0.92 0.25234517 0.74
0.92 0.25234517 0.94
0.92 0.25234517 1.14
0.92 0.25234517 1.34
1.1 0.22142418 0.5
1.1 0.22142418 0.7
1.1 0.22142418 0.9
1.1 0.22142418 1.1
1.1 0.22142418 1.3
1.105 0.2619012 0.51
1.105 0.2619012 0.71
1.105 0.2619012 0.91
1.105 0.2619012 1.11
1.105 0.2619012 1.31
1.11 0.21190587 0.52
1.11 0.21190587 0.72
1.11 0.21190587 0.92
1.11 0.21190587 1.12
1.11 0.21190587 1.32
1.115 0.27027004 0.53
1.115 0.27027004 0.73
1.115 0.27027004 0.93
1.115 0.27027004 1.13
1.115 0.27027004 1.33
1.12 0.25234517 0.54
1.12 0.25234517 0.74
1.12 0.25234517 0.94
1.12 0.25234517 1.14
1.12 0.25234517 1.34
1.3 0.22142418 0.5
1.3 0.22142418 0.7
1.3 0.22142418 0.9
1.3 0.22142418 1.1
1.3 0.22142418 1.3
1.305 0.2619012 0.51
1.305 0.2619012 0.71
1.305 0.2619012 0.91
1.305 0.2619012 1.11
1.305 0.2619012 1.31
1.31 0.21190587 0.52
1.31 0.21190587 0.72
1.31 0.21190587 0.92
1.31 0.21190587 1.12
1.31 0.21190587 1.32
1.315 0.27027004 0.53
1.315 0.27027004 0.73
1.315 0.27027004 0.93
1.315 0.27027004 1.13
1.315 0.27027004 1.33
1.32 0.25234517 0.54
1.32 0.25234517 0.74
1.32 0.25234517 0.94
1.32 0.25234517 1.14
1.32 0.25234517 1.34
CELLS 0 0
CELL_TYPES 0
POINT_DATA 125
SCALARS m double
LOOKUP_TABLE default
1
1
1
1
1
1
1
1
1
1
1
1
1
1
1
1
1
1
1
1
1
1
1
1
1
1
1
1
1
1
1
1
1
1
1
1
1
1
1
1
1
1
1
1
1
1
1
1
1
1
1
1
1
1
1
1
1
1
1
1
1
1
1
1
1
1
1
1
1
1
1
1
1
1
1
1
1
1
1
1
1
1
1
1
1
1
1
1
1
1
1
1
1
1
1
1
1
1
1
1
1
1
1
1
1
1
1
1
1
1
1
1
1
1
1
1
1
1
1
1
1
1
1
1
1
SCALARS r double
LOOKUP_TABLE default
0.1
0.1
0.1
0.1
0.1
0.1
0.1
0.1
0.1
0.1
0.1
0.1
0.1
0.1
0.1
0.1
0.1
0.1
0.1
0.1
0.1
0.1
0.1
0.1
0.1
0.1
0.1
0.1
0.1
0.1
0.1
0.1
0.1
0.1
0.1
0.1
0.1
0.1
0.1
0.1
0.1
0.1
0.1
0.1
0.1
0.1
0.1
0.1
0.1
0.1
0.1
0.1
0.1
0.1
0.1
0.1
0.1
0.1
0.1
0.1
0.1
0.1
0.1
0.1
0.1
0.1
0.1
0.1
0.1
0.1
0.1
0.1
0.1
0.1
0.1
0.1
0.1
0.1
0.1
0.1
0.1
0.1
0.1
0.1
0.1
0.1
0.1
0.1
0.1
0.1
0.1
0.1
0.1
0.1
0.1
0.1
0.1
0.1
0.1
0.1
0.1
0.1
0.1
0.1
0.1
0.1
0.1
0.1
0.1
0.1
0.1
0.1
0.1
0.1
0.1
0.1
0.1
0.1
0.1
0.1
0.1
0.1
0.1
0.1
0.1
VECTORS v double
8.397405e-19 -0.29342291 8.397405e-19
8.397405e-19 -0.29342291 1.1756367e-18
8.397405e-19 -0.29342291 1.5115329e-18
8.397405e-19 -0.29342291 1.8474291e-18
8.397405e-19 -0.29342291 2.1833253e-18
2.4369129e-19 -0.084121011 2.4610408e-19
2.4369129e-19 -0.084121011 3.4261548e-19
2.4369129e-19 -0.084121011 4.3912689e-19
2.4369129e-19 -0.084121011 5.3563829e-19
2.4369129e-19 -0.084121011 6.3214969e-19
7.6495069e-19 -0.056866023 7.7994972e-19
7.6495069e-19 -0.056866023 1.0799304e-18
7.6495069e-19 -0.056866023 1.3799111e-18
7.6495069e-19 -0.056866023 1.6798917e-18
7.6495069e-19 -0.056866023 1.9798724e-18
-1.8802249e-19 0.016600334 -1.9349887e-19
-1.8802249e-19 0.016600334 -2.6651731e-19
-1.8802249e-19 0.016600334 -3.3953575e-19
-1.8802249e-19 0.016600334 -4.1255419e-19
-1.8802249e-19 0.016600334 -4.8557263e-19
-2.7731642e-20 -0.26905482 -2.8798244e-20
-2.7731642e-20 -0.26905482 -3.946426e-20
-2.7731642e-20 -0.26905482 -5.0130276e-20
-2.7731642e-20 -0.26905482 -6.0796293e-20
-2.7731642e-20 -0.26905482 -7.1462309e-20
1.1756367e-18 -0.29342291 8.397405e-19
1.1756367e-18 -0.29342291 1.1756367e-18
1.1756367e-18 -0.29342291 1.5115329e-18
1.1756367e-18 -0.29342291 1.8474291e-18
1.1756367e-18 -0.29342291 2.1833253e-18
3.402027e-19 -0.084121011 2.4610408e-19
3.402027e-19 -0.084121011 3.4261548e-19
3.402027e-19 -0.084121011 4.3912689e-19
3.402027e-19 -0.084121011 5.3563829e-19
3.402027e-19 -0.084121011 6.3214969e-19
1.0649314e-18 -0.056866023 7.7994972e-19
1.0649314e-18 -0.056866023 1.0799304e-18
1.0649314e-18 -0.056866023 1.3799111e-18
1.0649314e-18 -0.056866023 1.6798917e-18
1.0649314e-18 -0.056866023 1.9798724e-18
-2.6104093e-19 0.016600334 -1.9349887e-19
-2.6104093e-19 0.016600334 -2.6651731e-19
-2.6104093e-19 0.016600334 -3.3953575e-19
-2.6104093e-19 0.016600334 -4.1255419e-19
-2.6104093e-19 0.016600334 -4.8557263e-19
-3.8397659e-20 -0.26905482 -2.8798244e-20
-3.8397659e-20 -0.26905482 -3.946426e-20
-3.8397659e-20 -0.26905482 -5.0130276e-20
-3.8397659e-20 -0.26905482 -6.0796293e-20
-3.8397659e-20 -0.26905482 -7.1462309e-20
1.5115329e-18 -0.29342291 8.397405e-19
1.5115329e-18 -0.29342291 1.1756367e-18
1.5115329e-18 -0.29342291 1.5115329e-18
1.5115329e-18 -0.29342291 1.8474291e-18
1.5115329e-18 -0.29342291 2.1833253e-18
4.367141e-19 -0.084121011 2.4610408e-19
4.367141e-19 -0.084121011 3.4261548e-19
4.367141e-19 -0.084121011 4.3912689e-19
4.367141e-19 -0.084121011 5.3563829e-19
4.367141e-19 -0.084121011 6.3214969e-19
1.364912e-18 -0.056866023 7.7994972e-19
1.364912e-18 -0.056866023 1.0799304e-18
1.364912e-18 -0.056866023 1.3799111e-18
1.364912e-18 -0.056866023 1.6798917e-18
1.364912e-18 -0.056866023 1.9798724e-18
-3.3405937e-19 0.016600334 -1.9349887e-19
-3.3405937e-19 0.016600334 -2.6651731e-19
-3.3405937e-19 0.016600334 -3.3953575e-19
-3.3405937e-19 0.016600334 -4.1255419e-19
-3.3405937e-19 0.016600334 -4.8557263e-19
-4.9063675e-20 -0.26905482 -2.8798244e-20
-4.9063675e-20 -0.26905482 -3.946426e-20
-4.9063675e-20 -0.26905482 -5.0130276e-20
-4.9063675e-20 -0.26905482 -6.0796293e-20
-4.9063675e-20 -0.26905482 -7.1462309e-20
1.8474291e-18 -0.29342291 8.397405e-19
1.8474291e-18 -0.29342291 1.1756367e-18
1.8474291e-18 -0.29342291 1.5115329e-18
1.8474291e-18 -0.29342291 1.8474291e-18
1.8474291e-18 -0.29342291 2.1833253e-18
5.3322551e-19 -0.084121011 2.4610408e-19
5.3322551e-19 -0.084121011 3.4261548e-19
5.3322551e-19 -0.084121011 4.3912689e-19
5.3322551e-19 -0.084121011 5.3563829e-19
5.3322551e-19 -0.084121011 6.3214969e-19
1.6648927e-18 -0.056866023 7.7994972e-19
1.6648927e-18 -0.056866023 1.0799304e-18
1.6648927e-18 -0.056866023 1.3799111e-18
1.6648927e-18 -0.056866023 1.6798917e-18
1.6648927e-18 -0.056866023 1.9798724e-18
-4.0707781e-19 0.016600334 -1.9349887e-19
-4.0707781e-19 0.016600334 -2.6651731e-19
-4.0707781e-19 0.016600334 -3.3953575e-19
-4.0707781e-19 0.016600334 -4.1255419e-19
-4.0707781e-19 0.016600334 -4.8557263e-19
-5.9729691e-20 -0.26905482 -2.8798244e-20
-5.9729691e-20 -0.26905482 -3.946426e-20
-5.9729691e-20 -0.26905482 -5.0130276e-20
-5.9729691e-20 -0.26905482 -6.0796293e-20
-5.9729691e-20 -0.26905482 -7.1462309e-20
2.1833253e-18 -0.29342291 8.397405e-19
2.1833253e-18 -0.29342291 1.1756367e-18
2.1833253e-18 -0.29342291 1.5115329e-18
2.1833253e-18 -0.29342291 1.8474291e-18
2.1833253e-18 -0.29342291 2.1833253e-18
6.2973691e-19 -0.084121011 2.4610408e-19
6.2973691e-19 -0.084121011 3.4261548e-19
6.2973691e-19 -0.084121011 4.3912689e-19
6.2973691e-19 -0.084121011 5.3563829e-19
6.2973691e-19 -0.084121011 6.3214969e-19
1.9648733e-18 -0.056866023 7.7994972e-19
1.9648733e-18 -0.056866023 1.0799304e-18
1.9648733e-18 -0.056866023 1.3799111e-18
1.9648733e-18 -0.056866023 1.6798917e-18
1.9648733e-18 -0.056866023 1.9798724e-18
-4.8009625e-19 0.016600334 -1.9349887e-19
-4.8009625e-19 0.016600334 -2.6651731e-19
-4.8009625e-19 0.016600334 -3.3953575e-19
-4.8009625e-19 0.016600334 -4.1255419e-19
-4.8009625e-19 0.016600334 -4.8557263e-19
-7.0395707e-20 -0.26905482 -2.8798244e-20
-7.0395707e-20 -0.26905482 -3.946426e-20
-7.0395707e-20 -0.26905482 -5.0130276e-20
-7.0395707e-20 -0.26905482 -6.0796293e-20
-7.0395707e-20 -0.26905482 -7.1462309e-20
VECTORS q double
1 -9.209115e-13 7.257831e-28
1 -9.209115e-13 1.0160939e-27
1 -9.209115e-13 1.3064045e-27
1 -9.209115e-13 1.5967262e-27
1 -9.209115e-13 1.8871013e-27
1 -1.4507478e-13 3.4436765e-29
1 -1.4507478e-13 4.794995e-29
1 -1.4507478e-13 6.1441097e-29
1 -1.4507478e-13 7.4972743e-29
1 -1.4507478e-13 8.8470933e-29
1 -7.5801594e-13 5.1843504e-28
1 -7.5801594e-13 7.1782473e-28
1 -7.5801594e-13 9.1715151e-28
1 -7.5801594e-13 1.1165898e-27
1 -7.5801594e-13 1.3161359e-27
1 3.0928572e-13 5.896848e-29
1 3.0928572e-13 8.11751e-29
1 3.0928572e-13 1.0348581e-28
1 3.0928572e-13 1.2574862e-28
1 3.0928572e-13 1.4795131e-28
1 7.5901253e-14 1.9334956e-30
1 7.5901253e-14 2.6184005e-30
1 7.5901253e-14 3.355556e-30
1 7.5901253e-14 4.0481003e-30
1 7.5901253e-14 4.7544662e-30
1 -1.2892761e-12 1.0160979e-27
1 -1.2892761e-12 1.4225343e-27
1 -1.2892761e-12 1.8290658e-27
1 -1.2892761e-12 2.2354578e-27
1 -1.2892761e-12 2.6419675e-27
1 -2.0253014e-13 4.8067198e-29
1 -2.0253014e-13 6.6933083e-29
1 -2.0253014e-13 8.5764461e-29
1 -2.0253014e-13 1.0464911e-28
1 -2.0253014e-13 1.234931e-28
1 -1.0552771e-12 7.2175816e-28
1 -1.0552771e-12 9.9936818e-28
1 -1.0552771e-12 1.2768655e-27
1 -1.0552771e-12 1.5544994e-27
1 -1.0552771e-12 1.8322517e-27
1 4.2939667e-13 8.1889902e-29
1 4.2939667e-13 1.1273176e-28
1 4.2939667e-13 1.4371847e-28
1 4.2939667e-13 1.7463542e-28
1 4.2939667e-13 2.0546903e-28
1 1.0509404e-13 2.6717531e-30
1 1.0509404e-13 3.6194292e-30
1 1.0509404e-13 4.6422138e-30
1 1.0509404e-13 5.5991824e-30
1 1.0509404e-13 6.5721177e-30
1 -1.6576407e-12 1.306417e-27
1 -1.6576407e-12 1.8288733e-27
1 -1.6576407e-12 2.3515381e-27
1 -1.6576407e-12 2.8741186e-27
1 -1.6576407e-12 3.3967658e-27
1 -2.5998549e-13 6.1712287e-29
1 -2.5998549e-13 8.593218e-29
1 -2.5998549e-13 1.101077e-28
1 -2.5998549e-13 1.3434931e-28
1 -2.5998549e-13 1.5854493e-28
1 -1.3525383e-12 9.2513901e-28
1 -1.3525383e-12 1.2809706e-27
1 -1.3525383e-12 1.6366369e-27
1 -1.3525383e-12 1.9925679e-27
1 -1.3525383e-12 2.3486165e-27
1 5.4950763e-13 1.0477247e-28
1 5.4950763e-13 1.4423025e-28
1 5.4950763e-13 1.8387021e-28
1 5.4950763e-13 2.2343052e-28
1 5.4950763e-13 2.6287463e-28
1 1.3428683e-13 3.4277791e-30
1 1.3428683e-13 4.6426161e-30
1 1.3428683e-13 5.9515392e-30
1 1.3428683e-13 7.1771222e-30
1 1.3428683e-13 8.4295926e-30
1 -2.0260053e-12 1.5967182e-27
1 -2.0260053e-12 2.2353743e-27
1 -2.0260053e-12 2.8740845e-27
1 -2.0260053e-12 3.5127907e-27
1 -2.0260053e-12 4.151598e-27
1 -3.1744085e-13 7.5332123e-29
1 -3.1744085e-13 1.0489633e-28
1 -3.1744085e-13 1.3440598e-28
1 -3.1744085e-13 1.6400485e-28
1 -3.1744085e-13 1.9353805e-28
1 -1.6497994e-12 1.1285482e-27
1 -1.6497994e-12 1.5626047e-27
1 -1.6497994e-12 1.9964826e-27
1 -1.6497994e-12 2.4306349e-27
1 -1.6497994e-12 2.8649872e-27
1 6.6961859e-13 1.2770515e-28
1 6.6961859e-13 1.7579543e-28
1 6.6961859e-13 2.2411238e-28
1 6.6961859e-13 2.7232839e-28
1 6.6961859e-13 3.2040644e-28
1 1.6347962e-13 4.1663908e-30
1 1.6347962e-13 5.6432863e-30
1 1.6347962e-13 7.2362821e-30
1 1.6347962e-13 8.7252639e-30
1 1.6347962e-13 1.0249564e-29
1 -2.3943699e-12 1.8869721e-27
1 -2.3943699e-12 2.6417179e-27
1 -2.3943699e-12 3.3965408e-27
1 -2.3943699e-12 4.1513644e-27
1 -2.3943699e-12 4.9063346e-27
1 -3.7489621e-13 8.898692e-29
1 -3.7489621e-13 1.2390857e-28
1 -3.7489621e-13 1.5876675e-28
1 -3.7489621e-13 1.9373122e-28
1 -3.7489621e-13 2.2861491e-28
1 -1.9470606e-12 1.3316754e-27
1 -1.9470606e-12 1.8438729e-27
1 -1.9470606e-12 2.3558171e-27
1 -1.9470606e-12 2.8682517e-27
1 -1.9470606e-12 3.3806755e-27
1 7.8972955e-13 1.5060989e-28
1 7.8972955e-13 2.0734989e-28
1 7.8972955e-13 2.6432047e-28
1 7.8972955e-13 3.2118224e-28
1 7.8972955e-13 3.7789509e-28
1 1.9267241e-13 4.9363621e-30
1 1.9267241e-13 6.6884586e-30
1 1.9267241e-13 8.5699563e-30
1 1.9267241e-13 1.0337063e-29
1 1.9267241e-13 1.214155e-29
