# vtk DataFile Version 4.0
hesp visualization file
ASCII
DATASET UNSTRUCTURED_GRID
POINTS 125 double
0.5 0.3729903 0.5
0.5 0.3729903 0.7
0.5 0.3729903 0.9
0.5 0.3729903 1.1
0.5 0.3729903 1.3
0.505 0.32811628 0.51
0.505 0.32811628 0.71
0.505 0.32811628 0.91
0.505 0.32811628 1.11
0.505 0.32811628 1.31
0.51 0.20938764 0.52
0.51 0.20938764 0.72
0.51 0.20938764 0.92
0.51 0.20938764 1.12
0.51 0.20938764 1.32
0.515 0.27614536 0.53
0.515 0.27614536 0.73
0.515 0.27614536 0.93
0.515 0.27614536 1.13
0.515 0.27614536 1.33
0.52 0.21026926 0.54
0.52 0.21026926 0.74
0.52 0.21026926 0.94
0.52 0.21026926 1.14
0.52 0.21026926 1.34
0.7 0.3729903 0.5
0.7 0.3729903 0.7
0.7 0.3729903 0.9
0.7 0.3729903 1.1
0.7 0.3729903 1.3
0.705 0.32811628 0.51
0.705 0.32811628 0.71
0.705 0.32811628 0.91
0.705 0.32811628 1.11
0.705 0.32811628 1.31
0.71 0.20938764 0.52
0.71 0.20938764 0.72
0.71 0.20938764 0.92
0.71 0.20938764 1.12
0.71 0.20938764 1.32
0.715 0.27614536 0.53
0.715 0.27614536 0.73
0.715 0.27614536 0.93
0.715 0.27614536 1.13
0.715 0.27614536 1.33
0.72 0.21026926 0.54
0.72 0.21026926 0.74
0.72 0.21026926 0.94
0.72 0.21026926 1.14
0.72 0.21026926 1.34
0.9 0.3729903 0.5
0.9 0.3729903 0.7
0.9 0.3729903 0.9
0.9 0.3729903 1.1
0.9 0.3729903 1.3
0.905 0.32811628 0.51
0.905 0.32811628 0.71
0.905 0.32811628 0.91
0.905 0.32811628 1.11
0.905 0.32811628 1.31
0.91 0.20938764 0.52
0.91 0.20938764 0.72
0.91 0.20938764 0.92
0.91 0.20938764 1.12
0.91 0.20938764 1.32
0.915 0.27614536 0.53
0.915 0.27614536 0.73
0.915 0.27614536 0.93
0.915 0.27614536 1.13
0.915 0.27614536 1.33
0.92 0.21026926 0.54
0.92 0.21026926 0.74
0.92 0.21026926 0.94
0.92 0.21026926 1.14
0.92 0.21026926 1.34
1.1 0.3729903 0.5
1.1 0.3729903 0.7
1.1 0.3729903 0.9
1.1 0.3729903 1.1
1.1 0.3729903 1.3
1.105 0.32811628 0.51
1.105 0.32811628 0.71
1.105 0.32811628 0.91
1.105 0.32811628 1.11
1.105 0.32811628 1.31
1.11 0.20938764 0.52
1.11 0.20938764 0.72
1.11 0.20938764 0.92
1.11 0.20938764 1.12
1.11 0.20938764 1.32
1.115 0.27614536 0.53
1.115 0.27614536 0.73
1.115 0.27614536 0.93
1.115 0.27614536 1.13
1.115 0.27614536 1.33
1.12 0.21026926 0.54
1.12 0.21026926 0.74
1.12 0.21026926 0.94
1.12 0.21026926 1.14
1.12 0.21026926 1.34
1.3 0.3729903 0.5
1.3 0.3729903 0.7
1.3 0.3729903 0.9
1.3 0.3729903 1.1
1.3 0.3729903 1.3
1.305 0.32811628 0.51
1.305 0.32811628 0.71
1.305 0.32811628 0.91
1.305 0.32811628 1.11
1.305 0.32811628 1.31
1.31 0.20938764 0.52
1.31 0.20938764 0.72
1.31 0.20938764 0.92
1.31 0.20938764 1.12
1.31 0.20938764 1.32
1.315 0.27614536 0.53
1.315 0.27614536 0.73
1.315 0.27614536 0.93
1.315 0.27614536 1.13
1.315 0.27614536 1.33
1.32 0.21026926 0.54
1.32 0.21026926 0.74
1.32 0.21026926 0.94
1.32 0.21026926 1.14
1.32 0.21026926 1.34
CELLS 0 0
CELL_TYPES 0
POINT_DATA 125
SCALARS m double
LOOKUP_TABLE default
1
1
1
1
1
1
1
1
1
1
1
1
1
1
1
1
1
1
1
1
1
1
1
1
1
1
1
1
1
1
1
1
1
1
1
1
1
1
1
1
1
1
1
1
1
1
1
1
1
1
1
1
1
1
1
1
1
1
1
1
1
1
1
1
1
1
1
1
1
1
1
1
1
1
1
1
1
1
1
1
1
1
1
1
1
1
1
1
1
1
1
1
1
1
1
1
1
1
1
1
1
1
1
1
1
1
1
1
1
1
1
1
1
1
1
1
1
1
1
1
1
1
1
1
1
SCALARS r double
LOOKUP_TABLE default
0.1
0.1
0.1
0.1
0.1
0.1
0.1
0.1
0.1
0.1
0.1
0.1
0.1
0.1
0.1
0.1
0.1
0.1
0.1
0.1
0.1
0.1
0.1
0.1
0.1
0.1
0.1
0.1
0.1
0.1
0.1
0.1
0.1
0.1
0.1
0.1
0.1
0.1
0.1
0.1
0.1
0.1
0.1
0.1
0.1
0.1
0.1
0.1
0.1
0.1
0.1
0.1
0.1
0.1
0.1
0.1
0.1
0.1
0.1
0.1
0.1
0.1
0.1
0.1
0.1
0.1
0.1
0.1
0.1
0.1
0.1
0.1
0.1
0.1
0.1
0.1
0.1
0.1
0.1
0.1
0.1
0.1
0.1
0.1
0.1
0.1
0.1
0.1
0.1
0.1
0.1
0.1
0.1
0.1
0.1
0.1
0.1
0.1
0.1
0.1
0.1
0.1
0.1
0.1
0.1
0.1
0.1
0.1
0.1
0.1
0.1
0.1
0.1
0.1
0.1
0.1
0.1
0.1
0.1
0.1
0.1
0.1
0.1
0.1
0.1
VECTORS v double
4.9689238e-20 -0.29842274 4.9689238e-20
4.9689238e-20 -0.29842274 6.9564934e-20
4.9689238e-20 -0.29842274 8.9440629e-20
4.9689238e-20 -0.29842274 1.0931632e-19
4.9689238e-20 -0.29842274 1.2919202e-19
0 0.19462104 0
0 0.19462104 0
0 0.19462104 0
0 0.19462104 0
0 0.19462104 0
5.3441348e-20 0.082271226 5.4489218e-20
5.3441348e-20 0.082271226 7.5446609e-20
5.3441348e-20 0.082271226 9.6404001e-20
5.3441348e-20 0.082271226 1.1736139e-19
5.3441348e-20 0.082271226 1.3831878e-19
-3.734874e-20 0.36321919 -3.8436568e-20
-3.734874e-20 0.36321919 -5.2940933e-20
-3.734874e-20 0.36321919 -6.7445298e-20
-3.734874e-20 0.36321919 -8.1949664e-20
-3.734874e-20 0.36321919 -9.6454029e-20
-5.7770067e-21 0.21256445 -5.9991993e-21
-5.7770067e-21 0.21256445 -8.2211249e-21
-5.7770067e-21 0.21256445 -1.0443051e-20
-5.7770067e-21 0.21256445 -1.2664976e-20
-5.7770067e-21 0.21256445 -1.4886902e-20
6.9564934e-20 -0.29842274 4.9689238e-20
6.9564934e-20 -0.29842274 6.9564934e-20
6.9564934e-20 -0.29842274 8.9440629e-20
6.9564934e-20 -0.29842274 1.0931632e-19
6.9564934e-20 -0.29842274 1.2919202e-19
0 0.19462104 0
0 0.19462104 0
0 0.19462104 0
0 0.19462104 0
0 0.19462104 0
7.439874e-20 0.082271226 5.4489218e-20
7.439874e-20 0.082271226 7.5446609e-20
7.439874e-20 0.082271226 9.6404001e-20
7.439874e-20 0.082271226 1.1736139e-19
7.439874e-20 0.082271226 1.3831878e-19
-5.1853106e-20 0.36321919 -3.8436568e-20
-5.1853106e-20 0.36321919 -5.2940933e-20
-5.1853106e-20 0.36321919 -6.7445298e-20
-5.1853106e-20 0.36321919 -8.1949664e-20
-5.1853106e-20 0.36321919 -9.6454029e-20
-7.9989324e-21 0.21256445 -5.9991993e-21
-7.9989324e-21 0.21256445 -8.2211249e-21
-7.9989324e-21 0.21256445 -1.0443051e-20
-7.9989324e-21 0.21256445 -1.2664976e-20
-7.9989324e-21 0.21256445 -1.4886902e-20
8.9440629e-20 -0.29842274 4.9689238e-20
8.9440629e-20 -0.29842274 6.9564934e-20
8.9440629e-20 -0.29842274 8.9440629e-20
8.9440629e-20 -0.29842274 1.0931632e-19
8.9440629e-20 -0.29842274 1.2919202e-19
0 0.19462104 0
0 0.19462104 0
0 0.19462104 0
0 0.19462104 0
0 0.19462104 0
9.5356131e-20 0.082271226 5.4489218e-20
9.5356131e-20 0.082271226 7.5446609e-20
9.5356131e-20 0.082271226 9.6404001e-20
9.5356131e-20 0.082271226 1.1736139e-19
9.5356131e-20 0.082271226 1.3831878e-19
-6.6357471e-20 0.36321919 -3.8436568e-20
-6.6357471e-20 0.36321919 -5.2940933e-20
-6.6357471e-20 0.36321919 -6.7445298e-20
-6.6357471e-20 0.36321919 -8.1949664e-20
-6.6357471e-20 0.36321919 -9.6454029e-20
-1.0220858e-20 0.21256445 -5.9991993e-21
-1.0220858e-20 0.21256445 -8.2211249e-21
-1.0220858e-20 0.21256445 -1.0443051e-20
-1.0220858e-20 0.21256445 -1.2664976e-20
-1.0220858e-20 0.21256445 -1.4886902e-20
1.0931632e-19 -0.29842274 4.9689238e-20
1.0931632e-19 -0.29842274 6.9564934e-20
1.0931632e-19 -0.29842274 8.9440629e-20
1.0931632e-19 -0.29842274 1.0931632e-19
1.0931632e-19 -0.29842274 1.2919202e-19
0 0.19462104 0
0 0.19462104 0
0 0.19462104 0
0 0.19462104 0
0 0.19462104 0
1.1631352e-19 0.082271226 5.4489218e-20
1.1631352e-19 0.082271226 7.5446609e-20
1.1631352e-19 0.082271226 9.6404001e-20
1.1631352e-19 0.082271226 1.1736139e-19
1.1631352e-19 0.082271226 1.3831878e-19
-8.0861836e-20 0.36321919 -3.8436568e-20
-8.0861836e-20 0.36321919 -5.2940933e-20
-8.0861836e-20 0.36321919 -6.7445298e-20
-8.0861836e-20 0.36321919 -8.1949664e-20
-8.0861836e-20 0.36321919 -9.6454029e-20
-1.2442784e-20 0.21256445 -5.9991993e-21
-1.2442784e-20 0.21256445 -8.2211249e-21
-1.2442784e-20 0.21256445 -1.0443051e-20
-1.2442784e-20 0.21256445 -1.2664976e-20
-1.2442784e-20 0.21256445 -1.4886902e-20
1.2919202e-19 -0.29842274 4.9689238e-20
1.2919202e-19 -0.29842274 6.9564934e-20
1.2919202e-19 -0.29842274 8.9440629e-20
1.2919202e-19 -0.29842274 1.0931632e-19
1.2919202e-19 -0.29842274 1.2919202e-19
0 0.19462104 0
0 0.19462104 0
0 0.19462104 0
0 0.19462104 0
0 0.19462104 0
1.3727091e-19 0.082271226 5.4489218e-20
1.3727091e-19 0.082271226 7.5446609e-20
1.3727091e-19 0.082271226 9.6404001e-20
1.3727091e-19 0.082271226 1.1736139e-19
1.3727091e-19 0.082271226 1.3831878e-19
-9.5366201e-20 0.36321919 -3.8436568e-20
-9.5366201e-20 0.36321919 -5.2940933e-20
-9.5366201e-20 0.36321919 -6.7445298e-20
-9.5366201e-20 0.36321919 -8.1949664e-20
-9.5366201e-20 0.36321919 -9.6454029e-20
-1.4664709e-20 0.21256445 -5.9991993e-21
-1.4664709e-20 0.21256445 -8.2211249e-21
-1.4664709e-20 0.21256445 -1.0443051e-20
-1.4664709e-20 0.21256445 -1.2664976e-20
-1.4664709e-20 0.21256445 -1.4886902e-20
VECTORS q double
1 -6.2278558e-15 2.4080729e-31
1 -6.2278558e-15 3.3674998e-31
1 -6.2278558e-15 4.3249792e-31
1 -6.2278558e-15 5.2957837e-31
1 -6.2278558e-15 6.2447744e-31
1 0 0
1 0 0
1 0 0
1 0 0
1 0 0
1 -8.2727513e-15 3.9018567e-31
1 -8.2727513e-15 5.4052821e-31
1 -8.2727513e-15 6.8976928e-31
1 -8.2727513e-15 8.4073175e-31
1 -8.2727513e-15 9.9126929e-31
1 1.3172686e-14 5.7065239e-31
1 1.3172686e-14 7.8527643e-31
1 1.3172686e-14 1.0016435e-30
1 1.3172686e-14 1.2166653e-30
1 1.3172686e-14 1.4307906e-30
1 1.2290132e-15 1.203636e-32
1 1.2290132e-15 1.6480582e-32
1 1.2290132e-15 2.0937443e-32
1 1.2290132e-15 2.539611e-32
1 1.2290132e-15 2.9837934e-32
1 -8.7189981e-15 3.3768994e-31
1 -8.7189981e-15 4.7227966e-31
1 -8.7189981e-15 6.0589427e-31
1 -8.7189981e-15 7.421137e-31
1 -8.7189981e-15 8.7511934e-31
1 0 0
1 0 0
1 0 0
1 0 0
1 0 0
1 -1.1516967e-14 5.4290717e-31
1 -1.1516967e-14 7.5202318e-31
1 -1.1516967e-14 9.5980019e-31
1 -1.1516967e-14 1.1704496e-30
1 -1.1516967e-14 1.3794369e-30
1 1.8288293e-14 7.9227898e-31
1 1.8288293e-14 1.0903134e-30
1 1.8288293e-14 1.3905247e-30
1 1.8288293e-14 1.6895909e-30
1 1.8288293e-14 1.9871283e-30
1 1.7017105e-15 1.6666685e-32
1 1.7017105e-15 2.2819518e-32
1 1.7017105e-15 2.8999723e-32
1 1.7017105e-15 3.5172706e-32
1 1.7017105e-15 4.1321534e-32
1 -1.121014e-14 4.3426202e-31
1 -1.121014e-14 6.0743547e-31
1 -1.121014e-14 7.8024972e-31
1 -1.121014e-14 9.5509102e-31
1 -1.121014e-14 1.1258811e-30
1 0 0
1 0 0
1 0 0
1 0 0
1 0 0
1 -1.4761184e-14 6.9739831e-31
1 -1.4761184e-14 9.6612432e-31
1 -1.4761184e-14 1.2326794e-30
1 -1.4761184e-14 1.5035352e-30
1 -1.4761184e-14 1.7722809e-30
1 2.3403899e-14 1.0135266e-30
1 2.3403899e-14 1.3948291e-30
1 2.3403899e-14 1.7789252e-30
1 2.3403899e-14 2.1618575e-30
1 2.3403899e-14 2.5419607e-30
1 2.1744079e-15 2.1293759e-32
1 2.1744079e-15 2.9155059e-32
1 2.1744079e-15 3.7045247e-32
1 2.1744079e-15 4.4928212e-32
1 2.1744079e-15 5.278939e-32
1 -1.3701283e-14 5.2972549e-31
1 -1.3701283e-14 7.4100503e-31
1 -1.3701283e-14 9.5186242e-31
1 -1.3701283e-14 1.1659188e-30
1 -1.3701283e-14 1.3735833e-30
1 0 0
1 0 0
1 0 0
1 0 0
1 0 0
1 -1.80054e-14 8.4955464e-31
1 -1.80054e-14 1.1770541e-30
1 -1.80054e-14 1.5023407e-30
1 -1.80054e-14 1.8314358e-30
1 -1.80054e-14 2.1597859e-30
1 2.8519505e-14 1.2357055e-30
1 2.8519505e-14 1.7003782e-30
1 2.8519505e-14 2.1690077e-30
1 2.8519505e-14 2.6351725e-30
1 2.8519505e-14 3.0988585e-30
1 2.6471052e-15 2.5925168e-32
1 2.6471052e-15 3.5491394e-32
1 2.6471052e-15 4.5104565e-32
1 2.6471052e-15 5.4703291e-32
1 2.6471052e-15 6.4274074e-32
1 -1.6192425e-14 6.2770712e-31
1 -1.6192425e-14 8.7808605e-31
1 -1.6192425e-14 1.1270973e-30
1 -1.6192425e-14 1.380737e-30
1 -1.6192425e-14 1.6296022e-30
1 0 0
1 0 0
1 0 0
1 0 0
1 0 0
1 -2.1249616e-14 1.0033426e-30
1 -2.1249616e-14 1.3907486e-30
1 -2.1249616e-14 1.7744587e-30
1 -2.1249616e-14 2.1629197e-30
1 -2.1249616e-14 2.5502198e-30
1 3.3635111e-14 1.4565516e-30
1 3.3635111e-14 2.0049508e-30
1 3.3635111e-14 2.5566438e-30
1 3.3635111e-14 3.1065119e-30
1 3.3635111e-14 3.6533368e-30
1 3.1198026e-15 3.0560765e-32
1 3.1198026e-15 4.1845641e-32
1 3.1198026e-15 5.3156228e-32
1 3.1198026e-15 6.4487615e-32
1 3.1198026e-15 7.5758902e-32
