# vtk DataFile Version 4.0
hesp visualization file
ASCII
DATASET UNSTRUCTURED_GRID
POINTS 125 double
0.5 0.25899117 0.5
0.5 0.25899117 0.7
0.5 0.25899117 0.9
0.5 0.25899117 1.1
0.5 0.25899117 1.3
0.505 0.25913559 0.51
0.505 0.25913559 0.71
0.505 0.25913559 0.91
0.505 0.25913559 1.11
0.505 0.25913559 1.31
0.51 0.21254397 0.52
0.51 0.21254397 0.72
0.51 0.21254397 0.92
0.51 0.21254397 1.12
0.51 0.21254397 1.32
0.515 0.23821311 0.53
0.515 0.23821311 0.73
0.515 0.23821311 0.93
0.515 0.23821311 1.13
0.515 0.23821311 1.33
0.52 0.26006035 0.54
0.52 0.26006035 0.74
0.52 0.26006035 0.94
0.52 0.26006035 1.14
0.52 0.26006035 1.34
0.7 0.25899117 0.5
0.7 0.25899117 0.7
0.7 0.25899117 0.9
0.7 0.25899117 1.1
0.7 0.25899117 1.3
0.705 0.25913559 0.51
0.705 0.25913559 0.71
0.705 0.25913559 0.91
0.705 0.25913559 1.11
0.705 0.25913559 1.31
0.71 0.21254397 0.52
0.71 0.21254397 0.72
0.71 0.21254397 0.92
0.71 0.21254397 1.12
0.71 0.21254397 1.32
0.715 0.23821311 0.53
0.715 0.23821311 0.73
0.715 0.23821311 0.93
0.715 0.23821311 1.13
0.715 0.23821311 1.33
0.72 0.26006035 0.54
0.72 0.26006035 0.74
0.72 0.26006035 0.94
0.72 0.26006035 1.14
0.72 0.26006035 1.34
0.9 0.25899117 0.5
0.9 0.25899117 0.7
0.9 0.25899117 0.9
0.9 0.25899117 1.1
0.9 0.25899117 1.3
0.905 0.25913559 0.51
0.905 0.25913559 0.71
0.905 0.25913559 0.91
0.905 0.25913559 1.11
0.905 0.25913559 1.31
0.91 0.21254397 0.52
0.91 0.21254397 0.72
0.91 0.21254397 0.92
0.91 0.21254397 1.12
0.91 0.21254397 1.32
0.915 0.23821311 0.53
0.915 0.23821311 0.73
0.915 0.23821311 0.93
0.915 0.23821311 1.13
0.915 0.23821311 1.33
0.92 0.26006035 0.54
0.92 0.26006035 0.74
0.92 0.26006035 0.94
0.92 0.26006035 1.14
0.92 0.26006035 1.34
1.1 0.25899117 0.5
1.1 0.25899117 0.7
1.1 0.25899117 0.9
1.1 0.25899117 1.1
1.1 0.25899117 1.3
1.105 0.25913559 0.51
1.105 0.25913559 0.71
1.105 0.25913559 0.91
1.105 0.25913559 1.11
1.105 0.25913559 1.31
1.11 0.21254397 0.52
1.11 0.21254397 0.72
1.11 0.21254397 0.92
1.11 0.21254397 1.12
1.11 0.21254397 1.32
1.115 0.23821311 0.53
1.115 0.23821311 0.73
1.115 0.23821311 0.93
1.115 0.23821311 1.13
1.115 0.23821311 1.33
1.12 0.26006035 0.54
1.12 0.26006035 0.74
1.12 0.26006035 0.94
1.12 0.26006035 1.14
1.12 0.26006035 1.34
1.3 0.25899117 0.5
1.3 0.25899117 0.7
1.3 0.25899117 0.9
1.3 0.25899117 1.1
1.3 0.25899117 1.3
1.305 0.25913559 0.51
1.305 0.25913559 0.71
1.305 0.25913559 0.91
1.305 0.25913559 1.11
1.305 0.25913559 1.31
1.31 0.21254397 0.52
1.31 0.21254397 0.72
1.31 0.21254397 0.92
1.31 0.21254397 1.12
1.31 0.21254397 1.32
1.315 0.23821311 0.53
1.315 0.23821311 0.73
1.315 0.23821311 0.93
1.315 0.23821311 1.13
1.315 0.23821311 1.33
1.32 0.26006035 0.54
1.32 0.26006035 0.74
1.32 0.26006035 0.94
1.32 0.26006035 1.14
1.32 0.26006035 1.34
CELLS 0 0
CELL_TYPES 0
POINT_DATA 125
SCALARS m double
LOOKUP_TABLE default
1
1
1
1
1
1
1
1
1
1
1
1
1
1
1
1
1
1
1
1
1
1
1
1
1
1
1
1
1
1
1
1
1
1
1
1
1
1
1
1
1
1
1
1
1
1
1
1
1
1
1
1
1
1
1
1
1
1
1
1
1
1
1
1
1
1
1
1
1
1
1
1
1
1
1
1
1
1
1
1
1
1
1
1
1
1
1
1
1
1
1
1
1
1
1
1
1
1
1
1
1
1
1
1
1
1
1
1
1
1
1
1
1
1
1
1
1
1
1
1
1
1
1
1
1
SCALARS r double
LOOKUP_TABLE default
0.1
0.1
0.1
0.1
0.1
0.1
0.1
0.1
0.1
0.1
0.1
0.1
0.1
0.1
0.1
0.1
0.1
0.1
0.1
0.1
0.1
0.1
0.1
0.1
0.1
0.1
0.1
0.1
0.1
0.1
0.1
0.1
0.1
0.1
0.1
0.1
0.1
0.1
0.1
0.1
0.1
0.1
0.1
0.1
0.1
0.1
0.1
0.1
0.1
0.1
0.1
0.1
0.1
0.1
0.1
0.1
0.1
0.1
0.1
0.1
0.1
0.1
0.1
0.1
0.1
0.1
0.1
0.1
0.1
0.1
0.1
0.1
0.1
0.1
0.1
0.1
0.1
0.1
0.1
0.1
0.1
0.1
0.1
0.1
0.1
0.1
0.1
0.1
0.1
0.1
0.1
0.1
0.1
0.1
0.1
0.1
0.1
0.1
0.1
0.1
0.1
0.1
0.1
0.1
0.1
0.1
0.1
0.1
0.1
0.1
0.1
0.1
0.1
0.1
0.1
0.1
0.1
0.1
0.1
0.1
0.1
0.1
0.1
0.1
0.1
VECTORS v double
6.5382509e-19 -0.070101151 6.5382509e-19
6.5382509e-19 -0.070101151 9.1535513e-19
6.5382509e-19 -0.070101151 1.1768852e-18
6.5382509e-19 -0.070101151 1.4384152e-18
6.5382509e-19 -0.070101151 1.6999452e-18
1.3880604e-19 0.090412198 1.4018036e-19
1.3880604e-19 0.090412198 1.9515305e-19
1.3880604e-19 0.090412198 2.5012574e-19
1.3880604e-19 0.090412198 3.0509843e-19
1.3880604e-19 0.090412198 3.6007112e-19
5.5533033e-19 -0.048602973 5.6621916e-19
5.5533033e-19 -0.048602973 7.8399576e-19
5.5533033e-19 -0.048602973 1.0017724e-18
5.5533033e-19 -0.048602973 1.219549e-18
5.5533033e-19 -0.048602973 1.4373256e-18
-1.6396654e-19 0.20244183 -1.6874227e-19
-1.6396654e-19 0.20244183 -2.3241859e-19
-1.6396654e-19 0.20244183 -2.9609492e-19
-1.6396654e-19 0.20244183 -3.5977125e-19
-1.6396654e-19 0.20244183 -4.2344757e-19
-3.4273262e-20 0.014491002 -3.5591465e-20
-3.4273262e-20 0.014491002 -4.8773489e-20
-3.4273262e-20 0.014491002 -6.1955513e-20
-3.4273262e-20 0.014491002 -7.5137536e-20
-3.4273262e-20 0.014491002 -8.831956e-20
9.1535513e-19 -0.070101151 6.5382509e-19
9.1535513e-19 -0.070101151 9.1535513e-19
9.1535513e-19 -0.070101151 1.1768852e-18
9.1535513e-19 -0.070101151 1.4384152e-18
9.1535513e-19 -0.070101151 1.6999452e-18
1.9377873e-19 0.090412198 1.4018036e-19
1.9377873e-19 0.090412198 1.9515305e-19
1.9377873e-19 0.090412198 2.5012574e-19
1.9377873e-19 0.090412198 3.0509843e-19
1.9377873e-19 0.090412198 3.6007112e-19
7.7310693e-19 -0.048602973 5.6621916e-19
7.7310693e-19 -0.048602973 7.8399576e-19
7.7310693e-19 -0.048602973 1.0017724e-18
7.7310693e-19 -0.048602973 1.219549e-18
7.7310693e-19 -0.048602973 1.4373256e-18
-2.2764287e-19 0.20244183 -1.6874227e-19
-2.2764287e-19 0.20244183 -2.3241859e-19
-2.2764287e-19 0.20244183 -2.9609492e-19
-2.2764287e-19 0.20244183 -3.5977125e-19
-2.2764287e-19 0.20244183 -4.2344757e-19
-4.7455286e-20 0.014491002 -3.5591465e-20
-4.7455286e-20 0.014491002 -4.8773489e-20
-4.7455286e-20 0.014491002 -6.1955513e-20
-4.7455286e-20 0.014491002 -7.5137536e-20
-4.7455286e-20 0.014491002 -8.831956e-20
1.1768852e-18 -0.070101151 6.5382509e-19
1.1768852e-18 -0.070101151 9.1535513e-19
1.1768852e-18 -0.070101151 1.1768852e-18
1.1768852e-18 -0.070101151 1.4384152e-18
1.1768852e-18 -0.070101151 1.6999452e-18
2.4875142e-19 0.090412198 1.4018036e-19
2.4875142e-19 0.090412198 1.9515305e-19
2.4875142e-19 0.090412198 2.5012574e-19
2.4875142e-19 0.090412198 3.0509843e-19
2.4875142e-19 0.090412198 3.6007112e-19
9.9088353e-19 -0.048602973 5.6621916e-19
9.9088353e-19 -0.048602973 7.8399576e-19
9.9088353e-19 -0.048602973 1.0017724e-18
9.9088353e-19 -0.048602973 1.219549e-18
9.9088353e-19 -0.048602973 1.4373256e-18
-2.913192e-19 0.20244183 -1.6874227e-19
-2.913192e-19 0.20244183 -2.3241859e-19
-2.913192e-19 0.20244183 -2.9609492e-19
-2.913192e-19 0.20244183 -3.5977125e-19
-2.913192e-19 0.20244183 -4.2344757e-19
-6.063731e-20 0.014491002 -3.5591465e-20
-6.063731e-20 0.014491002 -4.8773489e-20
-6.063731e-20 0.014491002 -6.1955513e-20
-6.063731e-20 0.014491002 -7.5137536e-20
-6.063731e-20 0.014491002 -8.831956e-20
1.4384152e-18 -0.070101151 6.5382509e-19
1.4384152e-18 -0.070101151 9.1535513e-19
1.4384152e-18 -0.070101151 1.1768852e-18
1.4384152e-18 -0.070101151 1.4384152e-18
1.4384152e-18 -0.070101151 1.6999452e-18
3.0372411e-19 0.090412198 1.4018036e-19
3.0372411e-19 0.090412198 1.9515305e-19
3.0372411e-19 0.090412198 2.5012574e-19
3.0372411e-19 0.090412198 3.0509843e-19
3.0372411e-19 0.090412198 3.6007112e-19
1.2086601e-18 -0.048602973 5.6621916e-19
1.2086601e-18 -0.048602973 7.8399576e-19
1.2086601e-18 -0.048602973 1.0017724e-18
1.2086601e-18 -0.048602973 1.219549e-18
1.2086601e-18 -0.048602973 1.4373256e-18
-3.5499552e-19 0.20244183 -1.6874227e-19
-3.5499552e-19 0.20244183 -2.3241859e-19
-3.5499552e-19 0.20244183 -2.9609492e-19
-3.5499552e-19 0.20244183 -3.5977125e-19
-3.5499552e-19 0.20244183 -4.2344757e-19
-7.3819334e-20 0.014491002 -3.5591465e-20
-7.3819334e-20 0.014491002 -4.8773489e-20
-7.3819334e-20 0.014491002 -6.1955513e-20
-7.3819334e-20 0.014491002 -7.5137536e-20
-7.3819334e-20 0.014491002 -8.831956e-20
1.6999452e-18 -0.070101151 6.5382509e-19
1.6999452e-18 -0.070101151 9.1535513e-19
1.6999452e-18 -0.070101151 1.1768852e-18
1.6999452e-18 -0.070101151 1.4384152e-18
1.6999452e-18 -0.070101151 1.6999452e-18
3.586968e-19 0.090412198 1.4018036e-19
3.586968e-19 0.090412198 1.9515305e-19
3.586968e-19 0.090412198 2.5012574e-19
3.586968e-19 0.090412198 3.0509843e-19
3.586968e-19 0.090412198 3.6007112e-19
1.4264367e-18 -0.048602973 5.6621916e-19
1.4264367e-18 -0.048602973 7.8399576e-19
1.4264367e-18 -0.048602973 1.0017724e-18
1.4264367e-18 -0.048602973 1.219549e-18
1.4264367e-18 -0.048602973 1.4373256e-18
-4.1867185e-19 0.20244183 -1.6874227e-19
-4.1867185e-19 0.20244183 -2.3241859e-19
-4.1867185e-19 0.20244183 -2.9609492e-19
-4.1867185e-19 0.20244183 -3.5977125e-19
-4.1867185e-19 0.20244183 -4.2344757e-19
-8.7001358e-20 0.014491002 -3.5591465e-20
-8.7001358e-20 0.014491002 -4.8773489e-20
-8.7001358e-20 0.014491002 -6.1955513e-20
-8.7001358e-20 0.014491002 -7.5137536e-20
-8.7001358e-20 0.014491002 -8.831956e-20
VECTORS q double
1 -5.8423261e-13 3.5020179e-28
1 -5.8423261e-13 4.9028301e-28
1 -5.8423261e-13 6.3036107e-28
1 -5.8423261e-13 7.7044623e-28
1 -5.8423261e-13 9.1055859e-28
1 -5.6946259e-14 7.4023526e-30
1 -5.6946259e-14 1.0308336e-29
1 -5.6946259e-14 1.3206207e-29
1 -5.6946259e-14 1.6119952e-29
1 -5.6946259e-14 1.9017828e-29
1 -4.7730652e-13 2.3797543e-28
1 -4.7730652e-13 3.2950007e-28
1 -4.7730652e-13 4.2097333e-28
1 -4.7730652e-13 5.1252839e-28
1 -4.7730652e-13 6.0415619e-28
1 2.2502633e-13 3.7455087e-29
1 2.2502633e-13 5.1556959e-29
1 2.2502633e-13 6.5730904e-29
1 2.2502633e-13 7.9873034e-29
1 2.2502633e-13 9.3969026e-29
1 6.1809163e-14 2.0973085e-30
1 6.1809163e-14 2.8539448e-30
1 6.1809163e-14 3.6430676e-30
1 6.1809163e-14 4.4057725e-30
1 6.1809163e-14 5.1752158e-30
1 -8.1792565e-13 4.9028231e-28
1 -8.1792565e-13 6.8639636e-28
1 -8.1792565e-13 8.8254027e-28
1 -8.1792565e-13 1.0786295e-27
1 -8.1792565e-13 1.2747729e-27
1 -7.9499232e-14 1.0331275e-29
1 -7.9499232e-14 1.4388492e-29
1 -7.9499232e-14 1.8432254e-29
1 -7.9499232e-14 2.2499338e-29
1 -7.9499232e-14 2.6542319e-29
1 -6.6448555e-13 3.3129465e-28
1 -6.6448555e-13 4.5871679e-28
1 -6.6448555e-13 5.860682e-28
1 -6.6448555e-13 7.1351435e-28
1 -6.6448555e-13 8.4105033e-28
1 3.124152e-13 5.2009877e-29
1 3.124152e-13 7.1593606e-29
1 3.124152e-13 9.1278137e-29
1 3.124152e-13 1.1091644e-28
1 3.124152e-13 1.3049066e-28
1 8.5581917e-14 2.9015271e-30
1 8.5581917e-14 3.9493074e-30
1 8.5581917e-14 5.0441406e-30
1 8.5581917e-14 6.0994429e-30
1 8.5581917e-14 7.1616209e-30
1 -1.0516187e-12 6.3036765e-28
1 -1.0516187e-12 8.8246986e-28
1 -1.0516187e-12 1.134656e-27
1 -1.0516187e-12 1.3868073e-27
1 -1.0516187e-12 1.6389916e-27
1 -1.0205221e-13 1.3265597e-29
1 -1.0205221e-13 1.8474584e-29
1 -1.0205221e-13 2.3667058e-29
1 -1.0205221e-13 2.8886638e-29
1 -1.0205221e-13 3.4081608e-29
1 -8.5166457e-13 4.2467839e-28
1 -8.5166457e-13 5.8801322e-28
1 -8.5166457e-13 7.5124309e-28
1 -8.5166457e-13 9.1464697e-28
1 -8.5166457e-13 1.0781432e-27
1 3.9980406e-13 6.654482e-29
1 3.9980406e-13 9.1599991e-29
1 3.9980406e-13 1.1678217e-28
1 3.9980406e-13 1.4191119e-28
1 3.9980406e-13 1.6695135e-28
1 1.0935467e-13 3.714918e-30
1 1.0935467e-13 5.0553694e-30
1 1.0935467e-13 6.4549152e-30
1 1.0935467e-13 7.8042256e-30
1 1.0935467e-13 9.1670856e-30
1 -1.2853117e-12 7.7044067e-28
1 -1.2853117e-12 1.0786188e-27
1 -1.2853117e-12 1.3867916e-27
1 -1.2853117e-12 1.6949765e-27
1 -1.2853117e-12 2.0032051e-27
1 -1.2460518e-13 1.6190868e-29
1 -1.2460518e-13 2.2547632e-29
1 -1.2460518e-13 2.8883537e-29
1 -1.2460518e-13 3.525787e-29
1 -1.2460518e-13 4.159559e-29
1 -1.0388436e-12 5.1805411e-28
1 -1.0388436e-12 7.1729261e-28
1 -1.0388436e-12 9.1642207e-28
1 -1.0388436e-12 1.1157503e-27
1 -1.0388436e-12 1.3151918e-27
1 4.8719293e-13 8.1107836e-29
1 4.8719293e-13 1.1164317e-28
1 4.8719293e-13 1.4233722e-28
1 4.8719293e-13 1.7296361e-28
1 4.8719293e-13 2.0348396e-28
1 1.3312743e-13 4.5191053e-30
1 1.3312743e-13 6.1501904e-30
1 1.3312743e-13 7.854172e-30
1 1.3312743e-13 9.4950222e-30
1 1.3312743e-13 1.1154615e-29
1 -1.5190048e-12 9.1048969e-28
1 -1.5190048e-12 1.2746895e-27
1 -1.5190048e-12 1.6388798e-27
1 -1.5190048e-12 2.0030998e-27
1 -1.5190048e-12 2.3673948e-27
1 -1.4715815e-13 1.9131365e-29
1 -1.4715815e-13 2.6642251e-29
1 -1.4715815e-13 3.4128887e-29
1 -1.4715815e-13 4.1658103e-29
1 -1.4715815e-13 4.9147556e-29
1 -1.2260226e-12 6.1129453e-28
1 -1.2260226e-12 8.4640771e-28
1 -1.2260226e-12 1.0813602e-27
1 -1.2260226e-12 1.3166027e-27
1 -1.2260226e-12 1.5519148e-27
1 5.745818e-13 9.5654164e-29
1 5.745818e-13 1.3168504e-28
1 5.745818e-13 1.6787367e-28
1 5.745818e-13 2.0399158e-28
1 5.745818e-13 2.3999422e-28
1 1.5690018e-13 5.3424813e-30
1 1.5690018e-13 7.2722786e-30
1 1.5690018e-13 9.2819897e-30
1 1.5690018e-13 1.1223957e-29
1 1.5690018e-13 1.3184805e-29
