# vtk DataFile Version 4.0
hesp visualization file
ASCII
DATASET UNSTRUCTURED_GRID
POINTS 125 double
0.5 0.41498171 0.5
0.5 0.41498171 0.7
0.5 0.41498171 0.9
0.5 0.41498171 1.1
0.5 0.41498171 1.3
0.505 0.27264793 0.51
0.505 0.27264793 0.71
0.505 0.27264793 0.91
0.505 0.27264793 1.11
0.505 0.27264793 1.31
0.51 0.22433786 0.52
0.51 0.22433786 0.72
0.51 0.22433786 0.92
0.51 0.22433786 1.12
0.51 0.22433786 1.32
0.515 0.30353767 0.53
0.515 0.30353767 0.73
0.515 0.30353767 0.93
0.515 0.30353767 1.13
0.515 0.30353767 1.33
0.52 0.36703892 0.54
0.52 0.36703892 0.74
0.52 0.36703892 0.94
0.52 0.36703892 1.14
0.52 0.36703892 1.34
0.7 0.41498171 0.5
0.7 0.41498171 0.7
0.7 0.41498171 0.9
0.7 0.41498171 1.1
0.7 0.41498171 1.3
0.705 0.27264793 0.51
0.705 0.27264793 0.71
0.705 0.27264793 0.91
0.705 0.27264793 1.11
0.705 0.27264793 1.31
0.71 0.22433786 0.52
0.71 0.22433786 0.72
0.71 0.22433786 0.92
0.71 0.22433786 1.12
0.71 0.22433786 1.32
0.715 0.30353767 0.53
0.715 0.30353767 0.73
0.715 0.30353767 0.93
0.715 0.30353767 1.13
0.715 0.30353767 1.33
0.72 0.36703892 0.54
0.72 0.36703892 0.74
0.72 0.36703892 0.94
0.72 0.36703892 1.14
0.72 0.36703892 1.34
0.9 0.41498171 0.5
0.9 0.41498171 0.7
0.9 0.41498171 0.9
0.9 0.41498171 1.1
0.9 0.41498171 1.3
0.905 0.27264793 0.51
0.905 0.27264793 0.71
0.905 0.27264793 0.91
0.905 0.27264793 1.11
0.905 0.27264793 1.31
0.91 0.22433786 0.52
0.91 0.22433786 0.72
0.91 0.22433786 0.92
0.91 0.22433786 1.12
0.91 0.22433786 1.32
0.915 0.30353767 0.53
0.915 0.30353767 0.73
0.915 0.30353767 0.93
0.915 0.30353767 1.13
0.915 0.30353767 1.33
0.92 0.36703892 0.54
0.92 0.36703892 0.74
0.92 0.36703892 0.94
0.92 0.36703892 1.14
0.92 0.36703892 1.34
1.1 0.41498171 0.5
1.1 0.41498171 0.7
1.1 0.41498171 0.9
1.1 0.41498171 1.1
1.1 0.41498171 1.3
1.105 0.27264793 0.51
1.105 0.27264793 0.71
1.105 0.27264793 0.91
1.105 0.27264793 1.11
1.105 0.27264793 1.31
1.11 0.22433786 0.52
1.11 0.22433786 0.72
1.11 0.22433786 0.92
1.11 0.22433786 1.12
1.11 0.22433786 1.32
1.115 0.30353767 0.53
1.115 0.30353767 0.73
1.115 0.30353767 0.93
1.115 0.30353767 1.13
1.115 0.30353767 1.33
1.12 0.36703892 0.54
1.12 0.36703892 0.74
1.12 0.36703892 0.94
1.12 0.36703892 1.14
1.12 0.36703892 1.34
1.3 0.41498171 0.5
1.3 0.41498171 0.7
1.3 0.41498171 0.9
1.3 0.41498171 1.1
1.3 0.41498171 1.3
1.305 0.27264793 0.51
1.305 0.27264793 0.71
1.305 0.27264793 0.91
1.305 0.27264793 1.11
1.305 0.27264793 1.31
1.31 0.22433786 0.52
1.31 0.22433786 0.72
1.31 0.22433786 0.92
1.31 0.22433786 1.12
1.31 0.22433786 1.32
1.315 0.30353767 0.53
1.315 0.30353767 0.73
1.315 0.30353767 0.93
1.315 0.30353767 1.13
1.315 0.30353767 1.33
1.32 0.36703892 0.54
1.32 0.36703892 0.74
1.32 0.36703892 0.94
1.32 0.36703892 1.14
1.32 0.36703892 1.34
CELLS 0 0
CELL_TYPES 0
POINT_DATA 125
SCALARS m double
LOOKUP_TABLE default
1
1
1
1
1
1
1
1
1
1
1
1
1
1
1
1
1
1
1
1
1
1
1
1
1
1
1
1
1
1
1
1
1
1
1
1
1
1
1
1
1
1
1
1
1
1
1
1
1
1
1
1
1
1
1
1
1
1
1
1
1
1
1
1
1
1
1
1
1
1
1
1
1
1
1
1
1
1
1
1
1
1
1
1
1
1
1
1
1
1
1
1
1
1
1
1
1
1
1
1
1
1
1
1
1
1
1
1
1
1
1
1
1
1
1
1
1
1
1
1
1
1
1
1
1
SCALARS r double
LOOKUP_TABLE default
0.1
0.1
0.1
0.1
0.1
0.1
0.1
0.1
0.1
0.1
0.1
0.1
0.1
0.1
0.1
0.1
0.1
0.1
0.1
0.1
0.1
0.1
0.1
0.1
0.1
0.1
0.1
0.1
0.1
0.1
0.1
0.1
0.1
0.1
0.1
0.1
0.1
0.1
0.1
0.1
0.1
0.1
0.1
0.1
0.1
0.1
0.1
0.1
0.1
0.1
0.1
0.1
0.1
0.1
0.1
0.1
0.1
0.1
0.1
0.1
0.1
0.1
0.1
0.1
0.1
0.1
0.1
0.1
0.1
0.1
0.1
0.1
0.1
0.1
0.1
0.1
0.1
0.1
0.1
0.1
0.1
0.1
0.1
0.1
0.1
0.1
0.1
0.1
0.1
0.1
0.1
0.1
0.1
0.1
0.1
0.1
0.1
0.1
0.1
0.1
0.1
0.1
0.1
0.1
0.1
0.1
0.1
0.1
0.1
0.1
0.1
0.1
0.1
0.1
0.1
0.1
0.1
0.1
0.1
0.1
0.1
0.1
0.1
0.1
0.1
VECTORS v double
1.6330824e-20 -0.068465714 1.6330824e-20
1.6330824e-20 -0.068465714 2.2863154e-20
1.6330824e-20 -0.068465714 2.9395484e-20
1.6330824e-20 -0.068465714 3.5927814e-20
1.6330824e-20 -0.068465714 4.2460144e-20
0 -0.43264197 0
0 -0.43264197 0
0 -0.43264197 0
0 -0.43264197 0
0 -0.43264197 0
5.6003113e-21 -0.077119674 5.7101213e-21
5.6003113e-21 -0.077119674 7.9063219e-21
5.6003113e-21 -0.077119674 1.0102522e-20
5.6003113e-21 -0.077119674 1.2298723e-20
5.6003113e-21 -0.077119674 1.4494923e-20
0 -0.66447493 0
0 -0.66447493 0
0 -0.66447493 0
0 -0.66447493 0
0 -0.66447493 0
0 -0.53835232 0
0 -0.53835232 0
0 -0.53835232 0
0 -0.53835232 0
0 -0.53835232 0
2.2863154e-20 -0.068465714 1.6330824e-20
2.2863154e-20 -0.068465714 2.2863154e-20
2.2863154e-20 -0.068465714 2.9395484e-20
2.2863154e-20 -0.068465714 3.5927814e-20
2.2863154e-20 -0.068465714 4.2460144e-20
0 -0.43264197 0
0 -0.43264197 0
0 -0.43264197 0
0 -0.43264197 0
0 -0.43264197 0
7.7965118e-21 -0.077119674 5.7101213e-21
7.7965118e-21 -0.077119674 7.9063219e-21
7.7965118e-21 -0.077119674 1.0102522e-20
7.7965118e-21 -0.077119674 1.2298723e-20
7.7965118e-21 -0.077119674 1.4494923e-20
0 -0.66447493 0
0 -0.66447493 0
0 -0.66447493 0
0 -0.66447493 0
0 -0.66447493 0
0 -0.53835232 0
0 -0.53835232 0
0 -0.53835232 0
0 -0.53835232 0
0 -0.53835232 0
2.9395484e-20 -0.068465714 1.6330824e-20
2.9395484e-20 -0.068465714 2.2863154e-20
2.9395484e-20 -0.068465714 2.9395484e-20
2.9395484e-20 -0.068465714 3.5927814e-20
2.9395484e-20 -0.068465714 4.2460144e-20
0 -0.43264197 0
0 -0.43264197 0
0 -0.43264197 0
0 -0.43264197 0
0 -0.43264197 0
9.9927123e-21 -0.077119674 5.7101213e-21
9.9927123e-21 -0.077119674 7.9063219e-21
9.9927123e-21 -0.077119674 1.0102522e-20
9.9927123e-21 -0.077119674 1.2298723e-20
9.9927123e-21 -0.077119674 1.4494923e-20
0 -0.66447493 0
0 -0.66447493 0
0 -0.66447493 0
0 -0.66447493 0
0 -0.66447493 0
0 -0.53835232 0
0 -0.53835232 0
0 -0.53835232 0
0 -0.53835232 0
0 -0.53835232 0
3.5927814e-20 -0.068465714 1.6330824e-20
3.5927814e-20 -0.068465714 2.2863154e-20
3.5927814e-20 -0.068465714 2.9395484e-20
3.5927814e-20 -0.068465714 3.5927814e-20
3.5927814e-20 -0.068465714 4.2460144e-20
0 -0.43264197 0
0 -0.43264197 0
0 -0.43264197 0
0 -0.43264197 0
0 -0.43264197 0
1.2188913e-20 -0.077119674 5.7101213e-21
1.2188913e-20 -0.077119674 7.9063219e-21
1.2188913e-20 -0.077119674 1.0102522e-20
1.2188913e-20 -0.077119674 1.2298723e-20
1.2188913e-20 -0.077119674 1.4494923e-20
0 -0.66447493 0
0 -0.66447493 0
0 -0.66447493 0
0 -0.66447493 0
0 -0.66447493 0
0 -0.53835232 0
0 -0.53835232 0
0 -0.53835232 0
0 -0.53835232 0
0 -0.53835232 0
4.2460144e-20 -0.068465714 1.6330824e-20
4.2460144e-20 -0.068465714 2.2863154e-20
4.2460144e-20 -0.068465714 2.9395484e-20
4.2460144e-20 -0.068465714 3.5927814e-20
4.2460144e-20 -0.068465714 4.2460144e-20
0 -0.43264197 0
0 -0.43264197 0
0 -0.43264197 0
0 -0.43264197 0
0 -0.43264197 0
1.4385113e-20 -0.077119674 5.7101213e-21
1.4385113e-20 -0.077119674 7.9063219e-21
1.4385113e-20 -0.077119674 1.0102522e-20
1.4385113e-20 -0.077119674 1.2298723e-20
1.4385113e-20 -0.077119674 1.4494923e-20
0 -0.66447493 0
0 -0.66447493 0
0 -0.66447493 0
0 -0.66447493 0
0 -0.66447493 0
0 -0.53835232 0
0 -0.53835232 0
0 -0.53835232 0
0 -0.53835232 0
0 -0.53835232 0
VECTORS q double
1 -4.5332134e-16 2.5976351e-33
1 -4.5332134e-16 3.6843291e-33
1 -4.5332134e-16 4.5369692e-33
1 -4.5332134e-16 5.7483137e-33
1 -4.5332134e-16 6.5256552e-33
1 0 0
1 0 0
1 0 0
1 0 0
1 0 0
1 -2.3502551e-16 1.6977155e-33
1 -2.3502551e-16 2.3555007e-33
1 -2.3502551e-16 2.9418597e-33
1 -2.3502551e-16 3.6245153e-33
1 -2.3502551e-16 4.3208191e-33
1 3.1098291e-15 6.7472158e-32
1 3.1098291e-15 9.293335e-32
1 3.1098291e-15 1.1839454e-31
1 3.1098291e-15 1.4385573e-31
1 3.1098291e-15 1.6931692e-31
1 0 0
1 0 0
1 0 0
1 0 0
1 0 0
1 -6.3464987e-16 3.6378928e-33
1 -6.3464987e-16 5.1945089e-33
1 -6.3464987e-16 6.1803009e-33
1 -6.3464987e-16 7.8835018e-33
1 -6.3464987e-16 8.9983578e-33
1 0 0
1 0 0
1 0 0
1 0 0
1 0 0
1 -3.2719237e-16 2.3613111e-33
1 -3.2719237e-16 3.2594535e-33
1 -3.2719237e-16 4.0959229e-33
1 -3.2719237e-16 5.0479481e-33
1 -3.2719237e-16 6.0038685e-33
1 4.3175297e-15 9.3674938e-32
1 4.3175297e-15 1.2902397e-31
1 4.3175297e-15 1.64373e-31
1 4.3175297e-15 1.9972204e-31
1 4.3175297e-15 2.3507107e-31
1 0 0
1 0 0
1 0 0
1 0 0
1 0 0
1 -8.1597841e-16 4.7672248e-33
1 -8.1597841e-16 6.8190409e-33
1 -8.1597841e-16 8.3689116e-33
1 -8.1597841e-16 1.0638599e-32
1 -8.1597841e-16 1.2069302e-32
1 0 0
1 0 0
1 0 0
1 0 0
1 0 0
1 -4.1935924e-16 3.0472475e-33
1 -4.1935924e-16 4.2550807e-33
1 -4.1935924e-16 5.3146974e-33
1 -4.1935924e-16 6.5669071e-33
1 -4.1935924e-16 7.8517775e-33
1 5.5252303e-15 1.1987772e-31
1 5.5252303e-15 1.6511459e-31
1 5.5252303e-15 2.1035147e-31
1 5.5252303e-15 2.5558834e-31
1 5.5252303e-15 3.0082522e-31
1 0 0
1 0 0
1 0 0
1 0 0
1 0 0
1 -9.9730695e-16 5.6281303e-33
1 -9.9730695e-16 8.0328683e-33
1 -9.9730695e-16 9.9118543e-33
1 -9.9730695e-16 1.2602138e-32
1 -9.9730695e-16 1.4154171e-32
1 0 0
1 0 0
1 0 0
1 0 0
1 0 0
1 -5.115261e-16 3.7108431e-33
1 -5.115261e-16 5.1012556e-33
1 -5.115261e-16 6.430242e-33
1 -5.115261e-16 7.9133028e-33
1 -5.115261e-16 9.4963083e-33
1 6.7329309e-15 1.460805e-31
1 6.7329309e-15 2.0120521e-31
1 6.7329309e-15 2.5632993e-31
1 6.7329309e-15 3.1145465e-31
1 6.7329309e-15 3.6657936e-31
1 0 0
1 0 0
1 0 0
1 0 0
1 0 0
1 -1.1786355e-15 7.0234814e-33
1 -1.1786355e-15 9.9761416e-33
1 -1.1786355e-15 1.2114428e-32
1 -1.1786355e-15 1.5486754e-32
1 -1.1786355e-15 1.7826487e-32
1 0 0
1 0 0
1 0 0
1 0 0
1 0 0
1 -6.0369297e-16 4.4545574e-33
1 -6.0369297e-16 6.17392e-33
1 -6.0369297e-16 7.7645723e-33
1 -6.0369297e-16 9.509299e-33
1 -6.0369297e-16 1.1421255e-32
1 7.9406315e-15 1.7228328e-31
1 7.9406315e-15 2.3729583e-31
1 7.9406315e-15 3.0230839e-31
1 7.9406315e-15 3.6732095e-31
1 7.9406315e-15 4.3233351e-31
1 0 0
1 0 0
1 0 0
1 0 0
1 0 0
