# vtk DataFile Version 4.0
hesp visualization file
ASCII
DATASET UNSTRUCTURED_GRID
POINTS 125 double
0.5 0.21888079 0.5
0.5 0.21888079 0.7
0.5 0.21888079 0.9
0.5 0.21888079 1.1
0.5 0.21888079 1.3
0.505 0.27956349 0.51
0.505 0.27956349 0.71
0.505 0.27956349 0.91
0.505 0.27956349 1.11
0.505 0.27956349 1.31
0.51 0.26461992 0.52
0.51 0.26461992 0.72
0.51 0.26461992 0.92
0.51 0.26461992 1.12
0.51 0.26461992 1.32
0.515 0.23139122 0.53
0.515 0.23139122 0.73
0.515 0.23139122 0.93
0.515 0.23139122 1.13
0.515 0.23139122 1.33
0.52 0.20534685 0.54
0.52 0.20534685 0.74
0.52 0.20534685 0.94
0.52 0.20534685 1.14
0.52 0.20534685 1.34
0.7 0.21888079 0.5
0.7 0.21888079 0.7
0.7 0.21888079 0.9
0.7 0.21888079 1.1
0.7 0.21888079 1.3
0.705 0.27956349 0.51
0.705 0.27956349 0.71
0.705 0.27956349 0.91
0.705 0.27956349 1.11
0.705 0.27956349 1.31
0.71 0.26461992 0.52
0.71 0.26461992 0.72
0.71 0.26461992 0.92
0.71 0.26461992 1.12
0.71 0.26461992 1.32
0.715 0.23139122 0.53
0.715 0.23139122 0.73
0.715 0.23139122 0.93
0.715 0.23139122 1.13
0.715 0.23139122 1.33
0.72 0.20534685 0.54
0.72 0.20534685 0.74
0.72 0.20534685 0.94
0.72 0.20534685 1.14
0.72 0.20534685 1.34
0.9 0.21888079 0.5
0.9 0.21888079 0.7
0.9 0.21888079 0.9
0.9 0.21888079 1.1
0.9 0.21888079 1.3
0.905 0.27956349 0.51
0.905 0.27956349 0.71
0.905 0.27956349 0.91
0.905 0.27956349 1.11
0.905 0.27956349 1.31
0.91 0.26461992 0.52
0.91 0.26461992 0.72
0.91 0.26461992 0.92
0.91 0.26461992 1.12
0.91 0.26461992 1.32
0.915 0.23139122 0.53
0.915 0.23139122 0.73
0.915 0.23139122 0.93
0.915 0.23139122 1.13
0.915 0.23139122 1.33
0.92 0.20534685 0.54
0.92 0.20534685 0.74
0.92 0.20534685 0.94
0.92 0.20534685 1.14
0.92 0.20534685 1.34
1.1 0.21888079 0.5
1.1 0.21888079 0.7
1.1 0.21888079 0.9
1.1 0.21888079 1.1
1.1 0.21888079 1.3
1.105 0.27956349 0.51
1.105 0.27956349 0.71
1.105 0.27956349 0.91
1.105 0.27956349 1.11
1.105 0.27956349 1.31
1.11 0.26461992 0.52
1.11 0.26461992 0.72
1.11 0.26461992 0.92
1.11 0.26461992 1.12
1.11 0.26461992 1.32
1.115 0.23139122 0.53
1.115 0.23139122 0.73
1.115 0.23139122 0.93
1.115 0.23139122 1.13
1.115 0.23139122 1.33
1.12 0.20534685 0.54
1.12 0.20534685 0.74
1.12 0.20534685 0.94
1.12 0.20534685 1.14
1.12 0.20534685 1.34
1.3 0.21888079 0.5
1.3 0.21888079 0.7
1.3 0.21888079 0.9
1.3 0.21888079 1.1
1.3 0.21888079 1.3
1.305 0.27956349 0.51
1.305 0.27956349 0.71
1.305 0.27956349 0.91
1.305 0.27956349 1.11
1.305 0.27956349 1.31
1.31 0.26461992 0.52
1.31 0.26461992 0.72
1.31 0.26461992 0.92
1.31 0.26461992 1.12
1.31 0.26461992 1.32
1.315 0.23139122 0.53
1.315 0.23139122 0.73
1.315 0.23139122 0.93
1.315 0.23139122 1.13
1.315 0.23139122 1.33
1.32 0.20534685 0.54
1.32 0.20534685 0.74
1.32 0.20534685 0.94
1.32 0.20534685 1.14
1.32 0.20534685 1.34
CELLS 0 0
CELL_TYPES 0
POINT_DATA 125
SCALARS m double
LOOKUP_TABLE default
1
1
1
1
1
1
1
1
1
1
1
1
1
1
1
1
1
1
1
1
1
1
1
1
1
1
1
1
1
1
1
1
1
1
1
1
1
1
1
1
1
1
1
1
1
1
1
1
1
1
1
1
1
1
1
1
1
1
1
1
1
1
1
1
1
1
1
1
1
1
1
1
1
1
1
1
1
1
1
1
1
1
1
1
1
1
1
1
1
1
1
1
1
1
1
1
1
1
1
1
1
1
1
1
1
1
1
1
1
1
1
1
1
1
1
1
1
1
1
1
1
1
1
1
1
SCALARS r double
LOOKUP_TABLE default
0.1
0.1
0.1
0.1
0.1
0.1
0.1
0.1
0.1
0.1
0.1
0.1
0.1
0.1
0.1
0.1
0.1
0.1
0.1
0.1
0.1
0.1
0.1
0.1
0.1
0.1
0.1
0.1
0.1
0.1
0.1
0.1
0.1
0.1
0.1
0.1
0.1
0.1
0.1
0.1
0.1
0.1
0.1
0.1
0.1
0.1
0.1
0.1
0.1
0.1
0.1
0.1
0.1
0.1
0.1
0.1
0.1
0.1
0.1
0.1
0.1
0.1
0.1
0.1
0.1
0.1
0.1
0.1
0.1
0.1
0.1
0.1
0.1
0.1
0.1
0.1
0.1
0.1
0.1
0.1
0.1
0.1
0.1
0.1
0.1
0.1
0.1
0.1
0.1
0.1
0.1
0.1
0.1
0.1
0.1
0.1
0.1
0.1
0.1
0.1
0.1
0.1
0.1
0.1
0.1
0.1
0.1
0.1
0.1
0.1
0.1
0.1
0.1
0.1
0.1
0.1
0.1
0.1
0.1
0.1
0.1
0.1
0.1
0.1
0.1
VECTORS v double
1.3256712e-18 0.28108281 1.3256712e-18
1.3256712e-18 0.28108281 1.8559397e-18
1.3256712e-18 0.28108281 2.3862082e-18
1.3256712e-18 0.28108281 2.9164767e-18
1.3256712e-18 0.28108281 3.4467452e-18
5.1800998e-19 0.057317608 5.2313879e-19
5.1800998e-19 0.057317608 7.2829126e-19
5.1800998e-19 0.057317608 9.3344372e-19
5.1800998e-19 0.057317608 1.1385962e-18
5.1800998e-19 0.057317608 1.3437487e-18
1.2129199e-18 -0.10927356 1.2367026e-18
1.2129199e-18 -0.10927356 1.7123575e-18
1.2129199e-18 -0.10927356 2.1880123e-18
1.2129199e-18 -0.10927356 2.6636672e-18
1.2129199e-18 -0.10927356 3.139322e-18
-2.1312675e-19 -0.22581304 -2.1933432e-19
-2.1312675e-19 -0.22581304 -3.0210199e-19
-2.1312675e-19 -0.22581304 -3.8486966e-19
-2.1312675e-19 -0.22581304 -4.6763733e-19
-2.1312675e-19 -0.22581304 -5.50405e-19
2.1367782e-20 0.1087185 2.218962e-20
2.1367782e-20 0.1087185 3.0407998e-20
2.1367782e-20 0.1087185 3.8626376e-20
2.1367782e-20 0.1087185 4.6844754e-20
2.1367782e-20 0.1087185 5.5063132e-20
1.8559397e-18 0.28108281 1.3256712e-18
1.8559397e-18 0.28108281 1.8559397e-18
1.8559397e-18 0.28108281 2.3862082e-18
1.8559397e-18 0.28108281 2.9164767e-18
1.8559397e-18 0.28108281 3.4467452e-18
7.2316245e-19 0.057317608 5.2313879e-19
7.2316245e-19 0.057317608 7.2829126e-19
7.2316245e-19 0.057317608 9.3344372e-19
7.2316245e-19 0.057317608 1.1385962e-18
7.2316245e-19 0.057317608 1.3437487e-18
1.6885747e-18 -0.10927356 1.2367026e-18
1.6885747e-18 -0.10927356 1.7123575e-18
1.6885747e-18 -0.10927356 2.1880123e-18
1.6885747e-18 -0.10927356 2.6636672e-18
1.6885747e-18 -0.10927356 3.139322e-18
-2.9589442e-19 -0.22581304 -2.1933432e-19
-2.9589442e-19 -0.22581304 -3.0210199e-19
-2.9589442e-19 -0.22581304 -3.8486966e-19
-2.9589442e-19 -0.22581304 -4.6763733e-19
-2.9589442e-19 -0.22581304 -5.50405e-19
2.958616e-20 0.1087185 2.218962e-20
2.958616e-20 0.1087185 3.0407998e-20
2.958616e-20 0.1087185 3.8626376e-20
2.958616e-20 0.1087185 4.6844754e-20
2.958616e-20 0.1087185 5.5063132e-20
2.3862082e-18 0.28108281 1.3256712e-18
2.3862082e-18 0.28108281 1.8559397e-18
2.3862082e-18 0.28108281 2.3862082e-18
2.3862082e-18 0.28108281 2.9164767e-18
2.3862082e-18 0.28108281 3.4467452e-18
9.2831491e-19 0.057317608 5.2313879e-19
9.2831491e-19 0.057317608 7.2829126e-19
9.2831491e-19 0.057317608 9.3344372e-19
9.2831491e-19 0.057317608 1.1385962e-18
9.2831491e-19 0.057317608 1.3437487e-18
2.1642296e-18 -0.10927356 1.2367026e-18
2.1642296e-18 -0.10927356 1.7123575e-18
2.1642296e-18 -0.10927356 2.1880123e-18
2.1642296e-18 -0.10927356 2.6636672e-18
2.1642296e-18 -0.10927356 3.139322e-18
-3.7866209e-19 -0.22581304 -2.1933432e-19
-3.7866209e-19 -0.22581304 -3.0210199e-19
-3.7866209e-19 -0.22581304 -3.8486966e-19
-3.7866209e-19 -0.22581304 -4.6763733e-19
-3.7866209e-19 -0.22581304 -5.50405e-19
3.7804538e-20 0.1087185 2.218962e-20
3.7804538e-20 0.1087185 3.0407998e-20
3.7804538e-20 0.1087185 3.8626376e-20
3.7804538e-20 0.1087185 4.6844754e-20
3.7804538e-20 0.1087185 5.5063132e-20
2.9164767e-18 0.28108281 1.3256712e-18
2.9164767e-18 0.28108281 1.8559397e-18
2.9164767e-18 0.28108281 2.3862082e-18
2.9164767e-18 0.28108281 2.9164767e-18
2.9164767e-18 0.28108281 3.4467452e-18
1.1334674e-18 0.057317608 5.2313879e-19
1.1334674e-18 0.057317608 7.2829126e-19
1.1334674e-18 0.057317608 9.3344372e-19
1.1334674e-18 0.057317608 1.1385962e-18
1.1334674e-18 0.057317608 1.3437487e-18
2.6398844e-18 -0.10927356 1.2367026e-18
2.6398844e-18 -0.10927356 1.7123575e-18
2.6398844e-18 -0.10927356 2.1880123e-18
2.6398844e-18 -0.10927356 2.6636672e-18
2.6398844e-18 -0.10927356 3.139322e-18
-4.6142975e-19 -0.22581304 -2.1933432e-19
-4.6142975e-19 -0.22581304 -3.0210199e-19
-4.6142975e-19 -0.22581304 -3.8486966e-19
-4.6142975e-19 -0.22581304 -4.6763733e-19
-4.6142975e-19 -0.22581304 -5.50405e-19
4.6022916e-20 0.1087185 2.218962e-20
4.6022916e-20 0.1087185 3.0407998e-20
4.6022916e-20 0.1087185 3.8626376e-20
4.6022916e-20 0.1087185 4.6844754e-20
4.6022916e-20 0.1087185 5.5063132e-20
3.4467452e-18 0.28108281 1.3256712e-18
3.4467452e-18 0.28108281 1.8559397e-18
3.4467452e-18 0.28108281 2.3862082e-18
3.4467452e-18 0.28108281 2.9164767e-18
3.4467452e-18 0.28108281 3.4467452e-18
1.3386198e-18 0.057317608 5.2313879e-19
1.3386198e-18 0.057317608 7.2829126e-19
1.3386198e-18 0.057317608 9.3344372e-19
1.3386198e-18 0.057317608 1.1385962e-18
1.3386198e-18 0.057317608 1.3437487e-18
3.1155393e-18 -0.10927356 1.2367026e-18
3.1155393e-18 -0.10927356 1.7123575e-18
3.1155393e-18 -0.10927356 2.1880123e-18
3.1155393e-18 -0.10927356 2.6636672e-18
3.1155393e-18 -0.10927356 3.139322e-18
-5.4419742e-19 -0.22581304 -2.1933432e-19
-5.4419742e-19 -0.22581304 -3.0210199e-19
-5.4419742e-19 -0.22581304 -3.8486966e-19
-5.4419742e-19 -0.22581304 -4.6763733e-19
-5.4419742e-19 -0.22581304 -5.50405e-19
5.4241294e-20 0.1087185 2.218962e-20
5.4241294e-20 0.1087185 3.0407998e-20
5.4241294e-20 0.1087185 3.8626376e-20
5.4241294e-20 0.1087185 4.6844754e-20
5.4241294e-20 0.1087185 5.5063132e-20
VECTORS q double
1 -1.8348138e-12 2.1756464e-27
1 -1.8348138e-12 3.0458798e-27
1 -1.8348138e-12 3.9160989e-27
1 -1.8348138e-12 4.7863979e-27
1 -1.8348138e-12 5.6568077e-27
1 -4.7334953e-13 2.2840412e-28
1 -4.7334953e-13 3.1802075e-28
1 -4.7334953e-13 4.0752162e-28
1 -4.7334953e-13 4.9718098e-28
1 -4.7334953e-13 5.867514e-28
1 -1.5615449e-12 1.6971754e-27
1 -1.5615449e-12 2.3499267e-27
1 -1.5615449e-12 3.0026375e-27
1 -1.5615449e-12 3.6554752e-27
1 -1.5615449e-12 4.308469e-27
1 4.9617103e-13 1.0458213e-28
1 4.9617103e-13 1.4397298e-28
1 4.9617103e-13 1.8353374e-28
1 4.9617103e-13 2.2302182e-28
1 4.9617103e-13 2.6241228e-28
1 8.4395624e-14 -1.6063115e-30
1 8.4395624e-14 -2.2605e-30
1 8.4395624e-14 -2.8125724e-30
1 8.4395624e-14 -3.4533808e-30
1 8.4395624e-14 -4.0658354e-30
1 -2.5687393e-12 3.0459256e-27
1 -2.5687393e-12 4.264266e-27
1 -2.5687393e-12 5.4829315e-27
1 -2.5687393e-12 6.7012064e-27
1 -2.5687393e-12 7.9197733e-27
1 -6.6081469e-13 3.1882877e-28
1 -6.6081469e-13 4.439347e-28
1 -6.6081469e-13 5.6889184e-28
1 -6.6081469e-13 6.940167e-28
1 -6.6081469e-13 8.1905708e-28
1 -2.1739155e-12 2.3628514e-27
1 -2.1739155e-12 3.2716878e-27
1 -2.1739155e-12 4.180369e-27
1 -2.1739155e-12 5.089231e-27
1 -2.1739155e-12 5.9981986e-27
1 6.8885881e-13 1.45266e-28
1 6.8885881e-13 1.9998636e-28
1 6.8885881e-13 2.5494763e-28
1 6.8885881e-13 3.0979189e-28
1 6.8885881e-13 3.6449068e-28
1 1.1685548e-13 -2.2392712e-30
1 1.1685548e-13 -3.1483497e-30
1 1.1685548e-13 -3.9095705e-30
1 1.1685548e-13 -4.805766e-30
1 1.1685548e-13 -5.6636451e-30
1 -3.3026648e-12 3.9162278e-27
1 -3.3026648e-12 5.4823184e-27
1 -3.3026648e-12 7.0490901e-27
1 -3.3026648e-12 8.6156644e-27
1 -3.3026648e-12 1.0182362e-26
1 -8.4827985e-13 4.0930907e-28
1 -8.4827985e-13 5.6991427e-28
1 -8.4827985e-13 7.3030093e-28
1 -8.4827985e-13 8.9095897e-28
1 -8.4827985e-13 1.0514767e-27
1 -2.786286e-12 3.0285148e-27
1 -2.786286e-12 4.1933786e-27
1 -2.786286e-12 5.3580236e-27
1 -2.786286e-12 6.5230478e-27
1 -2.786286e-12 7.6882041e-27
1 8.8154659e-13 1.8583509e-28
1 8.8154659e-13 2.5583351e-28
1 8.8154659e-13 3.2612859e-28
1 8.8154659e-13 3.9630285e-28
1 8.8154659e-13 4.6629e-28
1 1.4931533e-13 -2.8285148e-30
1 1.4931533e-13 -3.9786988e-30
1 1.4931533e-13 -4.9484663e-30
1 1.4931533e-13 -6.0808307e-30
1 1.4931533e-13 -7.1584207e-30
1 -4.0365903e-12 4.7864412e-27
1 -4.0365903e-12 6.7007905e-27
1 -4.0365903e-12 8.6154602e-27
1 -4.0365903e-12 1.0530129e-26
1 -4.0365903e-12 1.2445021e-26
1 -1.035745e-12 4.9969825e-28
1 -1.035745e-12 6.9576917e-28
1 -1.035745e-12 8.9157665e-28
1 -1.035745e-12 1.0877083e-27
1 -1.035745e-12 1.2836907e-27
1 -3.3986566e-12 3.6943811e-27
1 -3.3986566e-12 5.1153367e-27
1 -3.3986566e-12 6.53604e-27
1 -3.3986566e-12 7.9570425e-27
1 -3.3986566e-12 9.3785131e-27
1 1.0742344e-12 2.2653275e-28
1 1.0742344e-12 3.11856e-28
1 1.0742344e-12 3.9755364e-28
1 1.0742344e-12 4.8308314e-28
1 1.0742344e-12 5.6839527e-28
1 1.8177519e-13 -3.4591113e-30
1 1.8177519e-13 -4.8657179e-30
1 1.8177519e-13 -6.0481567e-30
1 1.8177519e-13 -7.4329504e-30
1 1.8177519e-13 -8.7481657e-30
1 -4.7705158e-12 5.6565545e-27
1 -4.7705158e-12 7.9188934e-27
1 -4.7705158e-12 1.0181648e-26
1 -4.7705158e-12 1.2444388e-26
1 -4.7705158e-12 1.4707432e-26
1 -1.2232102e-12 5.9017969e-28
1 -1.2232102e-12 8.2174754e-28
1 -1.2232102e-12 1.0530137e-27
1 -1.2232102e-12 1.2846759e-27
1 -1.2232102e-12 1.5161376e-27
1 -4.0110272e-12 4.3592955e-27
1 -4.0110272e-12 6.036021e-27
1 -4.0110272e-12 7.7124102e-27
1 -4.0110272e-12 9.3897181e-27
1 -4.0110272e-12 1.1066537e-26
1 1.2669221e-12 2.6716627e-28
1 1.2669221e-12 3.6782691e-28
1 1.2669221e-12 4.6887041e-28
1 1.2669221e-12 5.697471e-28
1 1.2669221e-12 6.7038241e-28
1 2.1423504e-13 -4.0274027e-30
1 2.1423504e-13 -5.6637008e-30
1 2.1423504e-13 -7.0456683e-30
1 2.1423504e-13 -8.6558657e-30
1 2.1423504e-13 -1.0191536e-29
