# vtk DataFile Version 4.0
hesp visualization file
ASCII
DATASET UNSTRUCTURED_GRID
POINTS 125 double
0.5 0.25969323 0.5
0.5 0.25969323 0.7
0.5 0.25969323 0.9
0.5 0.25969323 1.1
0.5 0.25969323 1.3
0.505 0.24564124 0.51
0.505 0.24564124 0.71
0.505 0.24564124 0.91
0.505 0.24564124 1.11
0.505 0.24564124 1.31
0.51 0.20113867 0.52
0.51 0.20113867 0.72
0.51 0.20113867 0.92
0.51 0.20113867 1.12
0.51 0.20113867 1.32
0.515 0.20668929 0.53
0.515 0.20668929 0.73
0.515 0.20668929 0.93
0.515 0.20668929 1.13
0.515 0.20668929 1.33
0.52 0.25961356 0.54
0.52 0.25961356 0.74
0.52 0.25961356 0.94
0.52 0.25961356 1.14
0.52 0.25961356 1.34
0.7 0.25969323 0.5
0.7 0.25969323 0.7
0.7 0.25969323 0.9
0.7 0.25969323 1.1
0.7 0.25969323 1.3
0.705 0.24564124 0.51
0.705 0.24564124 0.71
0.705 0.24564124 0.91
0.705 0.24564124 1.11
0.705 0.24564124 1.31
0.71 0.20113867 0.52
0.71 0.20113867 0.72
0.71 0.20113867 0.92
0.71 0.20113867 1.12
0.71 0.20113867 1.32
0.715 0.20668929 0.53
0.715 0.20668929 0.73
0.715 0.20668929 0.93
0.715 0.20668929 1.13
0.715 0.20668929 1.33
0.72 0.25961356 0.54
0.72 0.25961356 0.74
0.72 0.25961356 0.94
0.72 0.25961356 1.14
0.72 0.25961356 1.34
0.9 0.25969323 0.5
0.9 0.25969323 0.7
0.9 0.25969323 0.9
0.9 0.25969323 1.1
0.9 0.25969323 1.3
0.905 0.24564124 0.51
0.905 0.24564124 0.71
0.905 0.24564124 0.91
0.905 0.24564124 1.11
0.905 0.24564124 1.31
0.91 0.20113867 0.52
0.91 0.20113867 0.72
0.91 0.20113867 0.92
0.91 0.20113867 1.12
0.91 0.20113867 1.32
0.915 0.20668929 0.53
0.915 0.20668929 0.73
0.915 0.20668929 0.93
0.915 0.20668929 1.13
0.915 0.20668929 1.33
0.92 0.25961356 0.54
0.92 0.25961356 0.74
0.92 0.25961356 0.94
0.92 0.25961356 1.14
0.92 0.25961356 1.34
1.1 0.25969323 0.5
1.1 0.25969323 0.7
1.1 0.25969323 0.9
1.1 0.25969323 1.1
1.1 0.25969323 1.3
1.105 0.24564124 0.51
1.105 0.24564124 0.71
1.105 0.24564124 0.91
1.105 0.24564124 1.11
1.105 0.24564124 1.31
1.11 0.20113867 0.52
1.11 0.20113867 0.72
1.11 0.20113867 0.92
1.11 0.20113867 1.12
1.11 0.20113867 1.32
1.115 0.20668929 0.53
1.115 0.20668929 0.73
1.115 0.20668929 0.93
1.115 0.20668929 1.13
1.115 0.20668929 1.33
1.12 0.25961356 0.54
1.12 0.25961356 0.74
1.12 0.25961356 0.94
1.12 0.25961356 1.14
1.12 0.25961356 1.34
1.3 0.25969323 0.5
1.3 0.25969323 0.7
1.3 0.25969323 0.9
1.3 0.25969323 1.1
1.3 0.25969323 1.3
1.305 0.24564124 0.51
1.305 0.24564124 0.71
1.305 0.24564124 0.91
1.305 0.24564124 1.11
1.305 0.24564124 1.31
1.31 0.20113867 0.52
1.31 0.20113867 0.72
1.31 0.20113867 0.92
1.31 0.20113867 1.12
1.31 0.20113867 1.32
1.315 0.20668929 0.53
1.315 0.20668929 0.73
1.315 0.20668929 0.93
1.315 0.20668929 1.13
1.315 0.20668929 1.33
1.32 0.25961356 0.54
1.32 0.25961356 0.74
1.32 0.25961356 0.94
1.32 0.25961356 1.14
1.32 0.25961356 1.34
CELLS 0 0
CELL_TYPES 0
POINT_DATA 125
SCALARS m double
LOOKUP_TABLE default
1
1
1
1
1
1
1
1
1
1
1
1
1
1
1
1
1
1
1
1
1
1
1
1
1
1
1
1
1
1
1
1
1
1
1
1
1
1
1
1
1
1
1
1
1
1
1
1
1
1
1
1
1
1
1
1
1
1
1
1
1
1
1
1
1
1
1
1
1
1
1
1
1
1
1
1
1
1
1
1
1
1
1
1
1
1
1
1
1
1
1
1
1
1
1
1
1
1
1
1
1
1
1
1
1
1
1
1
1
1
1
1
1
1
1
1
1
1
1
1
1
1
1
1
1
SCALARS r double
LOOKUP_TABLE default
0.1
0.1
0.1
0.1
0.1
0.1
0.1
0.1
0.1
0.1
0.1
0.1
0.1
0.1
0.1
0.1
0.1
0.1
0.1
0.1
0.1
0.1
0.1
0.1
0.1
0.1
0.1
0.1
0.1
0.1
0.1
0.1
0.1
0.1
0.1
0.1
0.1
0.1
0.1
0.1
0.1
0.1
0.1
0.1
0.1
0.1
0.1
0.1
0.1
0.1
0.1
0.1
0.1
0.1
0.1
0.1
0.1
0.1
0.1
0.1
0.1
0.1
0.1
0.1
0.1
0.1
0.1
0.1
0.1
0.1
0.1
0.1
0.1
0.1
0.1
0.1
0.1
0.1
0.1
0.1
0.1
0.1
0.1
0.1
0.1
0.1
0.1
0.1
0.1
0.1
0.1
0.1
0.1
0.1
0.1
0.1
0.1
0.1
0.1
0.1
0.1
0.1
0.1
0.1
0.1
0.1
0.1
0.1
0.1
0.1
0.1
0.1
0.1
0.1
0.1
0.1
0.1
0.1
0.1
0.1
0.1
0.1
0.1
0.1
0.1
VECTORS v double
5.9720413e-19 0.092501319 5.9720413e-19
5.9720413e-19 0.092501319 8.3608579e-19
5.9720413e-19 0.092501319 1.0749674e-18
5.9720413e-19 0.092501319 1.3138491e-18
5.9720413e-19 0.092501319 1.5527307e-18
1.0818901e-19 0.23334854 1.0926018e-19
1.0818901e-19 0.23334854 1.5210731e-19
1.0818901e-19 0.23334854 1.9495444e-19
1.0818901e-19 0.23334854 2.3780158e-19
1.0818901e-19 0.23334854 2.8064871e-19
5.0458149e-19 0.15895262 5.1447524e-19
5.0458149e-19 0.15895262 7.1235033e-19
5.0458149e-19 0.15895262 9.1022543e-19
5.0458149e-19 0.15895262 1.1081005e-18
5.0458149e-19 0.15895262 1.3059756e-18
-1.5637063e-19 0.35618938 -1.6092512e-19
-1.5637063e-19 0.35618938 -2.2165158e-19
-1.5637063e-19 0.35618938 -2.8237804e-19
-1.5637063e-19 0.35618938 -3.431045e-19
-1.5637063e-19 0.35618938 -4.0383096e-19
-3.6345259e-20 0.16155004 -3.7743154e-20
-3.6345259e-20 0.16155004 -5.17221e-20
-3.6345259e-20 0.16155004 -6.5701046e-20
-3.6345259e-20 0.16155004 -7.9679992e-20
-3.6345259e-20 0.16155004 -9.3658938e-20
8.3608579e-19 0.092501319 5.9720413e-19
8.3608579e-19 0.092501319 8.3608579e-19
8.3608579e-19 0.092501319 1.0749674e-18
8.3608579e-19 0.092501319 1.3138491e-18
8.3608579e-19 0.092501319 1.5527307e-18
1.5103614e-19 0.23334854 1.0926018e-19
1.5103614e-19 0.23334854 1.5210731e-19
1.5103614e-19 0.23334854 1.9495444e-19
1.5103614e-19 0.23334854 2.3780158e-19
1.5103614e-19 0.23334854 2.8064871e-19
7.0245658e-19 0.15895262 5.1447524e-19
7.0245658e-19 0.15895262 7.1235033e-19
7.0245658e-19 0.15895262 9.1022543e-19
7.0245658e-19 0.15895262 1.1081005e-18
7.0245658e-19 0.15895262 1.3059756e-18
-2.1709709e-19 0.35618938 -1.6092512e-19
-2.1709709e-19 0.35618938 -2.2165158e-19
-2.1709709e-19 0.35618938 -2.8237804e-19
-2.1709709e-19 0.35618938 -3.431045e-19
-2.1709709e-19 0.35618938 -4.0383096e-19
-5.0324205e-20 0.16155004 -3.7743154e-20
-5.0324205e-20 0.16155004 -5.17221e-20
-5.0324205e-20 0.16155004 -6.5701046e-20
-5.0324205e-20 0.16155004 -7.9679992e-20
-5.0324205e-20 0.16155004 -9.3658938e-20
1.0749674e-18 0.092501319 5.9720413e-19
1.0749674e-18 0.092501319 8.3608579e-19
1.0749674e-18 0.092501319 1.0749674e-18
1.0749674e-18 0.092501319 1.3138491e-18
1.0749674e-18 0.092501319 1.5527307e-18
1.9388327e-19 0.23334854 1.0926018e-19
1.9388327e-19 0.23334854 1.5210731e-19
1.9388327e-19 0.23334854 1.9495444e-19
1.9388327e-19 0.23334854 2.3780158e-19
1.9388327e-19 0.23334854 2.8064871e-19
9.0033167e-19 0.15895262 5.1447524e-19
9.0033167e-19 0.15895262 7.1235033e-19
9.0033167e-19 0.15895262 9.1022543e-19
9.0033167e-19 0.15895262 1.1081005e-18
9.0033167e-19 0.15895262 1.3059756e-18
-2.7782355e-19 0.35618938 -1.6092512e-19
-2.7782355e-19 0.35618938 -2.2165158e-19
-2.7782355e-19 0.35618938 -2.8237804e-19
-2.7782355e-19 0.35618938 -3.431045e-19
-2.7782355e-19 0.35618938 -4.0383096e-19
-6.4303151e-20 0.16155004 -3.7743154e-20
-6.4303151e-20 0.16155004 -5.17221e-20
-6.4303151e-20 0.16155004 -6.5701046e-20
-6.4303151e-20 0.16155004 -7.9679992e-20
-6.4303151e-20 0.16155004 -9.3658938e-20
1.3138491e-18 0.092501319 5.9720413e-19
1.3138491e-18 0.092501319 8.3608579e-19
1.3138491e-18 0.092501319 1.0749674e-18
1.3138491e-18 0.092501319 1.3138491e-18
1.3138491e-18 0.092501319 1.5527307e-18
2.367304e-19 0.23334854 1.0926018e-19
2.367304e-19 0.23334854 1.5210731e-19
2.367304e-19 0.23334854 1.9495444e-19
2.367304e-19 0.23334854 2.3780158e-19
2.367304e-19 0.23334854 2.8064871e-19
1.0982068e-18 0.15895262 5.1447524e-19
1.0982068e-18 0.15895262 7.1235033e-19
1.0982068e-18 0.15895262 9.1022543e-19
1.0982068e-18 0.15895262 1.1081005e-18
1.0982068e-18 0.15895262 1.3059756e-18
-3.3855001e-19 0.35618938 -1.6092512e-19
-3.3855001e-19 0.35618938 -2.2165158e-19
-3.3855001e-19 0.35618938 -2.8237804e-19
-3.3855001e-19 0.35618938 -3.431045e-19
-3.3855001e-19 0.35618938 -4.0383096e-19
-7.8282097e-20 0.16155004 -3.7743154e-20
-7.8282097e-20 0.16155004 -5.17221e-20
-7.8282097e-20 0.16155004 -6.5701046e-20
-7.8282097e-20 0.16155004 -7.9679992e-20
-7.8282097e-20 0.16155004 -9.3658938e-20
1.5527307e-18 0.092501319 5.9720413e-19
1.5527307e-18 0.092501319 8.3608579e-19
1.5527307e-18 0.092501319 1.0749674e-18
1.5527307e-18 0.092501319 1.3138491e-18
1.5527307e-18 0.092501319 1.5527307e-18
2.7957753e-19 0.23334854 1.0926018e-19
2.7957753e-19 0.23334854 1.5210731e-19
2.7957753e-19 0.23334854 1.9495444e-19
2.7957753e-19 0.23334854 2.3780158e-19
2.7957753e-19 0.23334854 2.8064871e-19
1.2960819e-18 0.15895262 5.1447524e-19
1.2960819e-18 0.15895262 7.1235033e-19
1.2960819e-18 0.15895262 9.1022543e-19
1.2960819e-18 0.15895262 1.1081005e-18
1.2960819e-18 0.15895262 1.3059756e-18
-3.9927647e-19 0.35618938 -1.6092512e-19
-3.9927647e-19 0.35618938 -2.2165158e-19
-3.9927647e-19 0.35618938 -2.8237804e-19
-3.9927647e-19 0.35618938 -3.431045e-19
-3.9927647e-19 0.35618938 -4.0383096e-19
-9.2261043e-20 0.16155004 -3.7743154e-20
-9.2261043e-20 0.16155004 -5.17221e-20
-9.2261043e-20 0.16155004 -6.5701046e-20
-9.2261043e-20 0.16155004 -7.9679992e-20
-9.2261043e-20 0.16155004 -9.3658938e-20
VECTORS q double
1 -4.8223238e-13 2.5835295e-28
1 -4.8223238e-13 3.616954e-28
1 -4.8223238e-13 4.6503292e-28
1 -4.8223238e-13 5.6837907e-28
1 -4.8223238e-13 6.7174237e-28
1 -3.6905876e-14 3.5529609e-30
1 -3.6905876e-14 4.9481056e-30
1 -3.6905876e-14 6.3384775e-30
1 -3.6905876e-14 7.7386902e-30
1 -3.6905876e-14 9.1282672e-30
1 -3.9450066e-13 1.7368979e-28
1 -3.9450066e-13 2.4049093e-28
1 -3.9450066e-13 3.072475e-28
1 -3.9450066e-13 3.7407224e-28
1 -3.9450066e-13 4.4095854e-28
1 1.9666238e-13 3.1049625e-29
1 1.9666238e-13 4.2738727e-29
1 1.9666238e-13 5.4489535e-29
1 1.9666238e-13 6.6213641e-29
1 1.9666238e-13 7.7896597e-29
1 5.5720753e-14 2.0322445e-30
1 5.5720753e-14 2.7682504e-30
1 5.5720753e-14 3.5306204e-30
1 5.5720753e-14 4.2721238e-30
1 5.5720753e-14 5.0182495e-30
1 -6.7512533e-13 3.616932e-28
1 -6.7512533e-13 5.0637323e-28
1 -6.7512533e-13 6.5106679e-28
1 -6.7512533e-13 7.9572911e-28
1 -6.7512533e-13 9.4042589e-28
1 -5.1522064e-14 4.9581217e-30
1 -5.1522064e-14 6.9059721e-30
1 -5.1522064e-14 8.8459272e-30
1 -5.1522064e-14 1.0800543e-29
1 -5.1522064e-14 1.273772e-29
1 -5.492068e-13 2.4179575e-28
1 -5.492068e-13 3.3479515e-28
1 -5.492068e-13 4.277363e-28
1 -5.492068e-13 5.2075607e-28
1 -5.492068e-13 6.1385399e-28
1 2.7303612e-13 4.3114033e-29
1 2.7303612e-13 5.9346455e-29
1 2.7303612e-13 7.5665399e-29
1 2.7303612e-13 9.1945576e-29
1 2.7303612e-13 1.0816849e-28
1 7.7151811e-14 2.8121965e-30
1 7.7151811e-14 3.8315497e-30
1 7.7151811e-14 4.8893364e-30
1 7.7151811e-14 5.9155211e-30
1 7.7151811e-14 6.9459908e-30
1 -8.6801828e-13 4.6503957e-28
1 -8.6801828e-13 6.5102581e-28
1 -8.6801828e-13 8.3706567e-28
1 -8.6801828e-13 1.0230871e-27
1 -8.6801828e-13 1.2091257e-27
1 -6.6138253e-14 6.3669187e-30
1 -6.6138253e-14 8.8681323e-30
1 -6.6138253e-14 1.135914e-29
1 -6.6138253e-14 1.3867474e-29
1 -6.6138253e-14 1.6358325e-29
1 -7.0391294e-13 3.0996465e-28
1 -7.0391294e-13 4.291784e-28
1 -7.0391294e-13 5.4830718e-28
1 -7.0391294e-13 6.6757533e-28
1 -7.0391294e-13 7.8692968e-28
1 3.4940986e-13 5.5163413e-29
1 3.4940986e-13 7.5931203e-29
1 3.4940986e-13 9.6807914e-29
1 3.4940986e-13 1.1764019e-28
1 3.4940986e-13 1.3839307e-28
1 9.858287e-14 3.5989282e-30
1 9.858287e-14 4.9025338e-30
1 9.858287e-14 6.2542287e-30
1 9.858287e-14 7.5658727e-30
1 9.858287e-14 8.8871711e-30
1 -1.0609112e-12 5.6837309e-28
1 -1.0609112e-12 7.9572832e-28
1 -1.0609112e-12 1.0230696e-27
1 -1.0609112e-12 1.2504281e-27
1 -1.0609112e-12 1.4778082e-27
1 -8.0754441e-14 7.7705449e-30
1 -8.0754441e-14 1.0822386e-29
1 -8.0754441e-14 1.3861513e-29
1 -8.0754441e-14 1.6924979e-29
1 -8.0754441e-14 1.9962984e-29
1 -8.5861909e-13 3.781167e-28
1 -8.5861909e-13 5.2353405e-28
1 -8.5861909e-13 6.6886328e-28
1 -8.5861909e-13 8.1435955e-28
1 -8.5861909e-13 9.5994578e-28
1 4.2578359e-13 6.7234905e-29
1 4.2578359e-13 9.2544786e-29
1 4.2578359e-13 1.1799093e-28
1 4.2578359e-13 1.4338004e-28
1 4.2578359e-13 1.6867463e-28
1 1.2001393e-13 4.3787513e-30
1 1.2001393e-13 5.9651828e-30
1 1.2001393e-13 7.6111464e-30
1 1.2001393e-13 9.2065413e-30
1 1.2001393e-13 1.0815655e-29
1 -1.2538042e-12 6.716914e-28
1 -1.2538042e-12 9.4037916e-28
1 -1.2538042e-12 1.2090424e-27
1 -1.2538042e-12 1.4777443e-27
1 -1.2538042e-12 1.7464931e-27
1 -9.537063e-14 9.1831683e-30
1 -9.537063e-14 1.2789498e-29
1 -9.537063e-14 1.6381188e-29
1 -9.537063e-14 1.9999102e-29
1 -9.537063e-14 2.3589781e-29
1 -1.0133252e-12 4.4617084e-28
1 -1.0133252e-12 6.1777441e-28
1 -1.0133252e-12 7.8924751e-28
1 -1.0133252e-12 9.6094811e-28
1 -1.0133252e-12 1.1327272e-27
1 5.0215733e-13 7.9292763e-29
1 5.0215733e-13 1.0915879e-28
1 5.0215733e-13 1.3915918e-28
1 5.0215733e-13 1.6910104e-28
1 5.0215733e-13 1.9893938e-28
1 1.4144499e-13 5.1740955e-30
1 1.4144499e-13 7.0500392e-30
1 1.4144499e-13 8.9906961e-30
1 1.4144499e-13 1.0877721e-29
1 1.4144499e-13 1.2778148e-29
