# vtk DataFile Version 4.0
hesp visualization file
ASCII
DATASET UNSTRUCTURED_GRID
POINTS 125 double
0.5 0.26372747 0.5
0.5 0.26372747 0.7
0.5 0.26372747 0.9
0.5 0.26372747 1.1
0.5 0.26372747 1.3
0.505 0.30174657 0.51
0.505 0.30174657 0.71
0.505 0.30174657 0.91
0.505 0.30174657 1.11
0.505 0.30174657 1.31
0.51 0.27438017 0.52
0.51 0.27438017 0.72
0.51 0.27438017 0.92
0.51 0.27438017 1.12
0.51 0.27438017 1.32
0.515 0.21618592 0.53
0.515 0.21618592 0.73
0.515 0.21618592 0.93
0.515 0.21618592 1.13
0.515 0.21618592 1.33
0.52 0.20690142 0.54
0.52 0.20690142 0.74
0.52 0.20690142 0.94
0.52 0.20690142 1.14
0.52 0.20690142 1.34
0.7 0.26372747 0.5
0.7 0.26372747 0.7
0.7 0.26372747 0.9
0.7 0.26372747 1.1
0.7 0.26372747 1.3
0.705 0.30174657 0.51
0.705 0.30174657 0.71
0.705 0.30174657 0.91
0.705 0.30174657 1.11
0.705 0.30174657 1.31
0.71 0.27438017 0.52
0.71 0.27438017 0.72
0.71 0.27438017 0.92
0.71 0.27438017 1.12
0.71 0.27438017 1.32
0.715 0.21618592 0.53
0.715 0.21618592 0.73
0.715 0.21618592 0.93
0.715 0.21618592 1.13
0.715 0.21618592 1.33
0.72 0.20690142 0.54
0.72 0.20690142 0.74
0.72 0.20690142 0.94
0.72 0.20690142 1.14
0.72 0.20690142 1.34
0.9 0.26372747 0.5
0.9 0.26372747 0.7
0.9 0.26372747 0.9
0.9 0.26372747 1.1
0.9 0.26372747 1.3
0.905 0.30174657 0.51
0.905 0.30174657 0.71
0.905 0.30174657 0.91
0.905 0.30174657 1.11
0.905 0.30174657 1.31
0.91 0.27438017 0.52
0.91 0.27438017 0.72
0.91 0.27438017 0.92
0.91 0.27438017 1.12
0.91 0.27438017 1.32
0.915 0.21618592 0.53
0.915 0.21618592 0.73
0.915 0.21618592 0.93
0.915 0.21618592 1.13
0.915 0.21618592 1.33
0.92 0.20690142 0.54
0.92 0.20690142 0.74
0.92 0.20690142 0.94
0.92 0.20690142 1.14
0.92 0.20690142 1.34
1.1 0.26372747 0.5
1.1 0.26372747 0.7
1.1 0.26372747 0.9
1.1 0.26372747 1.1
1.1 0.26372747 1.3
1.105 0.30174657 0.51
1.105 0.30174657 0.71
1.105 0.30174657 0.91
1.105 0.30174657 1.11
1.105 0.30174657 1.31
1.11 0.27438017 0.52
1.11 0.27438017 0.72
1.11 0.27438017 0.92
1.11 0.27438017 1.12
1.11 0.27438017 1.32
1.115 0.21618592 0.53
1.115 0.21618592 0.73
1.115 0.21618592 0.93
1.115 0.21618592 1.13
1.115 0.21618592 1.33
1.12 0.20690142 0.54
1.12 0.20690142 0.74
1.12 0.20690142 0.94
1.12 0.20690142 1.14
1.12 0.20690142 1.34
1.3 0.26372747 0.5
1.3 0.26372747 0.7
1.3 0.26372747 0.9
1.3 0.26372747 1.1
1.3 0.26372747 1.3
1.305 0.30174657 0.51
1.305 0.30174657 0.71
1.305 0.30174657 0.91
1.305 0.30174657 1.11
1.305 0.30174657 1.31
1.31 0.27438017 0.52
1.31 0.27438017 0.72
1.31 0.27438017 0.92
1.31 0.27438017 1.12
1.31 0.27438017 1.32
1.315 0.21618592 0.53
1.315 0.21618592 0.73
1.315 0.21618592 0.93
1.315 0.21618592 1.13
1.315 0.21618592 1.33
1.32 0.20690142 0.54
1.32 0.20690142 0.74
1.32 0.20690142 0.94
1.32 0.20690142 1.14
1.32 0.20690142 1.34
CELLS 0 0
CELL_TYPES 0
POINT_DATA 125
SCALARS m double
LOOKUP_TABLE default
1
1
1
1
1
1
1
1
1
1
1
1
1
1
1
1
1
1
1
1
1
1
1
1
1
1
1
1
1
1
1
1
1
1
1
1
1
1
1
1
1
1
1
1
1
1
1
1
1
1
1
1
1
1
1
1
1
1
1
1
1
1
1
1
1
1
1
1
1
1
1
1
1
1
1
1
1
1
1
1
1
1
1
1
1
1
1
1
1
1
1
1
1
1
1
1
1
1
1
1
1
1
1
1
1
1
1
1
1
1
1
1
1
1
1
1
1
1
1
1
1
1
1
1
1
SCALARS r double
LOOKUP_TABLE default
0.1
0.1
0.1
0.1
0.1
0.1
0.1
0.1
0.1
0.1
0.1
0.1
0.1
0.1
0.1
0.1
0.1
0.1
0.1
0.1
0.1
0.1
0.1
0.1
0.1
0.1
0.1
0.1
0.1
0.1
0.1
0.1
0.1
0.1
0.1
0.1
0.1
0.1
0.1
0.1
0.1
0.1
0.1
0.1
0.1
0.1
0.1
0.1
0.1
0.1
0.1
0.1
0.1
0.1
0.1
0.1
0.1
0.1
0.1
0.1
0.1
0.1
0.1
0.1
0.1
0.1
0.1
0.1
0.1
0.1
0.1
0.1
0.1
0.1
0.1
0.1
0.1
0.1
0.1
0.1
0.1
0.1
0.1
0.1
0.1
0.1
0.1
0.1
0.1
0.1
0.1
0.1
0.1
0.1
0.1
0.1
0.1
0.1
0.1
0.1
0.1
0.1
0.1
0.1
0.1
0.1
0.1
0.1
0.1
0.1
0.1
0.1
0.1
0.1
0.1
0.1
0.1
0.1
0.1
0.1
0.1
0.1
0.1
0.1
0.1
VECTORS v double
1.1085232e-18 -0.071572263 1.1085232e-18
1.1085232e-18 -0.071572263 1.5519325e-18
1.1085232e-18 -0.071572263 1.9953418e-18
1.1085232e-18 -0.071572263 2.4387511e-18
1.1085232e-18 -0.071572263 2.8821604e-18
4.3054265e-19 0.37959909 4.3480545e-19
4.3054265e-19 0.37959909 6.0531739e-19
4.3054265e-19 0.37959909 7.7582934e-19
4.3054265e-19 0.37959909 9.4634128e-19
4.3054265e-19 0.37959909 1.1168532e-18
1.0685516e-18 0.24933095 1.0895036e-18
1.0685516e-18 0.24933095 1.5085434e-18
1.0685516e-18 0.24933095 1.9275833e-18
1.0685516e-18 0.24933095 2.3466231e-18
1.0685516e-18 0.24933095 2.7656629e-18
-2.1383057e-19 0.19661285 -2.2005864e-19
-2.1383057e-19 0.19661285 -3.0309964e-19
-2.1383057e-19 0.19661285 -3.8614063e-19
-2.1383057e-19 0.19661285 -4.6918163e-19
-2.1383057e-19 0.19661285 -5.5222262e-19
-1.1669516e-20 -0.077705934 -1.2118344e-20
-1.1669516e-20 -0.077705934 -1.6606619e-20
-1.1669516e-20 -0.077705934 -2.1094895e-20
-1.1669516e-20 -0.077705934 -2.558317e-20
-1.1669516e-20 -0.077705934 -3.0071446e-20
1.5519325e-18 -0.071572263 1.1085232e-18
1.5519325e-18 -0.071572263 1.5519325e-18
1.5519325e-18 -0.071572263 1.9953418e-18
1.5519325e-18 -0.071572263 2.4387511e-18
1.5519325e-18 -0.071572263 2.8821604e-18
6.010546e-19 0.37959909 4.3480545e-19
6.010546e-19 0.37959909 6.0531739e-19
6.010546e-19 0.37959909 7.7582934e-19
6.010546e-19 0.37959909 9.4634128e-19
6.010546e-19 0.37959909 1.1168532e-18
1.4875914e-18 0.24933095 1.0895036e-18
1.4875914e-18 0.24933095 1.5085434e-18
1.4875914e-18 0.24933095 1.9275833e-18
1.4875914e-18 0.24933095 2.3466231e-18
1.4875914e-18 0.24933095 2.7656629e-18
-2.9687156e-19 0.19661285 -2.2005864e-19
-2.9687156e-19 0.19661285 -3.0309964e-19
-2.9687156e-19 0.19661285 -3.8614063e-19
-2.9687156e-19 0.19661285 -4.6918163e-19
-2.9687156e-19 0.19661285 -5.5222262e-19
-1.6157792e-20 -0.077705934 -1.2118344e-20
-1.6157792e-20 -0.077705934 -1.6606619e-20
-1.6157792e-20 -0.077705934 -2.1094895e-20
-1.6157792e-20 -0.077705934 -2.558317e-20
-1.6157792e-20 -0.077705934 -3.0071446e-20
1.9953418e-18 -0.071572263 1.1085232e-18
1.9953418e-18 -0.071572263 1.5519325e-18
1.9953418e-18 -0.071572263 1.9953418e-18
1.9953418e-18 -0.071572263 2.4387511e-18
1.9953418e-18 -0.071572263 2.8821604e-18
7.7156654e-19 0.37959909 4.3480545e-19
7.7156654e-19 0.37959909 6.0531739e-19
7.7156654e-19 0.37959909 7.7582934e-19
7.7156654e-19 0.37959909 9.4634128e-19
7.7156654e-19 0.37959909 1.1168532e-18
1.9066313e-18 0.24933095 1.0895036e-18
1.9066313e-18 0.24933095 1.5085434e-18
1.9066313e-18 0.24933095 1.9275833e-18
1.9066313e-18 0.24933095 2.3466231e-18
1.9066313e-18 0.24933095 2.7656629e-18
-3.7991256e-19 0.19661285 -2.2005864e-19
-3.7991256e-19 0.19661285 -3.0309964e-19
-3.7991256e-19 0.19661285 -3.8614063e-19
-3.7991256e-19 0.19661285 -4.6918163e-19
-3.7991256e-19 0.19661285 -5.5222262e-19
-2.0646067e-20 -0.077705934 -1.2118344e-20
-2.0646067e-20 -0.077705934 -1.6606619e-20
-2.0646067e-20 -0.077705934 -2.1094895e-20
-2.0646067e-20 -0.077705934 -2.558317e-20
-2.0646067e-20 -0.077705934 -3.0071446e-20
2.4387511e-18 -0.071572263 1.1085232e-18
2.4387511e-18 -0.071572263 1.5519325e-18
2.4387511e-18 -0.071572263 1.9953418e-18
2.4387511e-18 -0.071572263 2.4387511e-18
2.4387511e-18 -0.071572263 2.8821604e-18
9.4207848e-19 0.37959909 4.3480545e-19
9.4207848e-19 0.37959909 6.0531739e-19
9.4207848e-19 0.37959909 7.7582934e-19
9.4207848e-19 0.37959909 9.4634128e-19
9.4207848e-19 0.37959909 1.1168532e-18
2.3256711e-18 0.24933095 1.0895036e-18
2.3256711e-18 0.24933095 1.5085434e-18
2.3256711e-18 0.24933095 1.9275833e-18
2.3256711e-18 0.24933095 2.3466231e-18
2.3256711e-18 0.24933095 2.7656629e-18
-4.6295355e-19 0.19661285 -2.2005864e-19
-4.6295355e-19 0.19661285 -3.0309964e-19
-4.6295355e-19 0.19661285 -3.8614063e-19
-4.6295355e-19 0.19661285 -4.6918163e-19
-4.6295355e-19 0.19661285 -5.5222262e-19
-2.5134343e-20 -0.077705934 -1.2118344e-20
-2.5134343e-20 -0.077705934 -1.6606619e-20
-2.5134343e-20 -0.077705934 -2.1094895e-20
-2.5134343e-20 -0.077705934 -2.558317e-20
-2.5134343e-20 -0.077705934 -3.0071446e-20
2.8821604e-18 -0.071572263 1.1085232e-18
2.8821604e-18 -0.071572263 1.5519325e-18
2.8821604e-18 -0.071572263 1.9953418e-18
2.8821604e-18 -0.071572263 2.4387511e-18
2.8821604e-18 -0.071572263 2.8821604e-18
1.1125904e-18 0.37959909 4.3480545e-19
1.1125904e-18 0.37959909 6.0531739e-19
1.1125904e-18 0.37959909 7.7582934e-19
1.1125904e-18 0.37959909 9.4634128e-19
1.1125904e-18 0.37959909 1.1168532e-18
2.7447109e-18 0.24933095 1.0895036e-18
2.7447109e-18 0.24933095 1.5085434e-18
2.7447109e-18 0.24933095 1.9275833e-18
2.7447109e-18 0.24933095 2.3466231e-18
2.7447109e-18 0.24933095 2.7656629e-18
-5.4599455e-19 0.19661285 -2.2005864e-19
-5.4599455e-19 0.19661285 -3.0309964e-19
-5.4599455e-19 0.19661285 -3.8614063e-19
-5.4599455e-19 0.19661285 -4.6918163e-19
-5.4599455e-19 0.19661285 -5.5222262e-19
-2.9622618e-20 -0.077705934 -1.2118344e-20
-2.9622618e-20 -0.077705934 -1.6606619e-20
-2.9622618e-20 -0.077705934 -2.1094895e-20
-2.9622618e-20 -0.077705934 -2.558317e-20
-2.9622618e-20 -0.077705934 -3.0071446e-20
VECTORS q double
1 -1.4186162e-12 1.4442159e-27
1 -1.4186162e-12 2.0218876e-27
1 -1.4186162e-12 2.5995607e-27
1 -1.4186162e-12 3.1772686e-27
1 -1.4186162e-12 3.7550636e-27
1 -3.1213289e-13 1.1851529e-28
1 -3.1213289e-13 1.6501622e-28
1 -3.1213289e-13 2.1145426e-28
1 -3.1213289e-13 2.5799007e-28
1 -3.1213289e-13 3.0446378e-28
1 -1.1904076e-12 1.0912188e-27
1 -1.1904076e-12 1.5109102e-27
1 -1.1904076e-12 1.9305408e-27
1 -1.1904076e-12 2.3503031e-27
1 -1.1904076e-12 2.7702085e-27
1 4.1837432e-13 8.9012417e-29
1 4.1837432e-13 1.2253942e-28
1 4.1837432e-13 1.5620967e-28
1 4.1837432e-13 1.8981601e-28
1 4.1837432e-13 2.2334172e-28
1 8.5571164e-14 7.9638364e-31
1 8.5571164e-14 1.0445245e-30
1 8.5571164e-14 1.3726895e-30
1 8.5571164e-14 1.631023e-30
1 8.5571164e-14 1.9126608e-30
1 -1.9860626e-12 2.0219137e-27
1 -1.9860626e-12 2.8306611e-27
1 -1.9860626e-12 3.6396305e-27
1 -1.9860626e-12 4.4483211e-27
1 -1.9860626e-12 5.257224e-27
1 -4.3574987e-13 1.6543277e-28
1 -4.3574987e-13 2.3035072e-28
1 -4.3574987e-13 2.9518163e-28
1 -4.3574987e-13 3.6012399e-28
1 -4.3574987e-13 4.2500371e-28
1 -1.6572342e-12 1.5192132e-27
1 -1.6572342e-12 2.1035606e-27
1 -1.6572342e-12 2.6877541e-27
1 -1.6572342e-12 3.272122e-27
1 -1.6572342e-12 3.8566179e-27
1 5.8084978e-13 1.2362539e-28
1 5.8084978e-13 1.7019444e-28
1 5.8084978e-13 2.1696466e-28
1 5.8084978e-13 2.6363698e-28
1 5.8084978e-13 3.1019449e-28
1 1.1848315e-13 1.0920902e-30
1 1.1848315e-13 1.433603e-30
1 1.1848315e-13 1.8906253e-30
1 1.1848315e-13 2.243092e-30
1 1.1848315e-13 2.6250648e-30
1 -2.5535091e-12 2.5996177e-27
1 -2.5535091e-12 3.6392098e-27
1 -2.5535091e-12 4.6792588e-27
1 -2.5535091e-12 5.7191467e-27
1 -2.5535091e-12 6.7591413e-27
1 -5.5936685e-13 2.1238395e-28
1 -5.5936685e-13 2.9572182e-28
1 -5.5936685e-13 3.7893817e-28
1 -5.5936685e-13 4.6231826e-28
1 -5.5936685e-13 5.4560894e-28
1 -2.1240607e-12 1.9472344e-27
1 -2.1240607e-12 2.696207e-27
1 -2.1240607e-12 3.44496e-27
1 -2.1240607e-12 4.1940655e-27
1 -2.1240607e-12 4.9433104e-27
1 7.4332525e-13 1.5816193e-28
1 7.4332525e-13 2.1773751e-28
1 7.4332525e-13 2.7756339e-28
1 7.4332525e-13 3.372829e-28
1 7.4332525e-13 3.9684699e-28
1 1.5139514e-13 1.4193743e-30
1 1.5139514e-13 1.8636887e-30
1 1.5139514e-13 2.4501552e-30
1 1.5139514e-13 2.9080987e-30
1 1.5139514e-13 3.4107422e-30
1 -3.1209556e-12 3.1772781e-27
1 -3.1209556e-12 4.4480607e-27
1 -3.1209556e-12 5.7190446e-27
1 -3.1209556e-12 6.9900052e-27
1 -3.1209556e-12 8.2611422e-27
1 -6.8298384e-13 2.5927661e-28
1 -6.8298384e-13 3.6101443e-28
1 -6.8298384e-13 4.6260472e-28
1 -6.8298384e-13 5.6439709e-28
1 -6.8298384e-13 6.6608362e-28
1 -2.5908872e-12 2.3753661e-27
1 -2.5908872e-12 3.288998e-27
1 -2.5908872e-12 4.2023822e-27
1 -2.5908872e-12 5.1160805e-27
1 -2.5908872e-12 6.0301416e-27
1 9.0580071e-13 1.9278866e-28
1 9.0580071e-13 2.6540267e-28
1 9.0580071e-13 3.3832993e-28
1 9.0580071e-13 4.111153e-28
1 9.0580071e-13 4.8371996e-28
1 1.8430712e-13 1.7165276e-30
1 1.8430712e-13 2.2530112e-30
1 1.8430712e-13 2.9659185e-30
1 1.8430712e-13 3.5184827e-30
1 1.8430712e-13 4.1284104e-30
1 -3.688402e-12 3.7548611e-27
1 -3.688402e-12 5.2566372e-27
1 -3.688402e-12 6.7586872e-27
1 -3.688402e-12 8.2606986e-27
1 -3.688402e-12 9.7629514e-27
1 -8.0660082e-13 3.0623661e-28
1 -8.0660082e-13 4.2639956e-28
1 -8.0660082e-13 5.4638939e-28
1 -8.0660082e-13 6.6662821e-28
1 -8.0660082e-13 7.8672615e-28
1 -3.0577137e-12 2.8028889e-27
1 -3.0577137e-12 3.8809761e-27
1 -3.0577137e-12 4.9587289e-27
1 -3.0577137e-12 6.0372268e-27
1 -3.0577137e-12 7.1155017e-27
1 1.0682762e-12 2.2736773e-28
1 1.0682762e-12 3.1303554e-28
1 1.0682762e-12 3.9902458e-28
1 1.0682762e-12 4.8486707e-28
1 1.0682762e-12 5.7050989e-28
1 2.1721911e-13 2.0621878e-30
1 2.1721911e-13 2.7116424e-30
1 2.1721911e-13 3.5601121e-30
1 2.1721911e-13 4.2289965e-30
1 2.1721911e-13 4.9597855e-30
