# vtk DataFile Version 4.0
hesp visualization file
ASCII
DATASET UNSTRUCTURED_GRID
POINTS 125 double
0.5 0.24893164 0.5
0.5 0.24893164 0.7
0.5 0.24893164 0.9
0.5 0.24893164 1.1
0.5 0.24893164 1.3
0.505 0.28216186 0.51
0.505 0.28216186 0.71
0.505 0.28216186 0.91
0.505 0.28216186 1.11
0.505 0.28216186 1.31
0.51 0.21024317 0.52
0.51 0.21024317 0.72
0.51 0.21024317 0.92
0.51 0.21024317 1.12
0.51 0.21024317 1.32
0.515 0.28463269 0.53
0.515 0.28463269 0.73
0.515 0.28463269 0.93
0.515 0.28463269 1.13
0.515 0.28463269 1.33
0.52 0.2686938 0.54
0.52 0.2686938 0.74
0.52 0.2686938 0.94
0.52 0.2686938 1.14
0.52 0.2686938 1.34
0.7 0.24893164 0.5
0.7 0.24893164 0.7
0.7 0.24893164 0.9
0.7 0.24893164 1.1
0.7 0.24893164 1.3
0.705 0.28216186 0.51
0.705 0.28216186 0.71
0.705 0.28216186 0.91
0.705 0.28216186 1.11
0.705 0.28216186 1.31
0.71 0.21024317 0.52
0.71 0.21024317 0.72
0.71 0.21024317 0.92
0.71 0.21024317 1.12
0.71 0.21024317 1.32
0.715 0.28463269 0.53
0.715 0.28463269 0.73
0.715 0.28463269 0.93
0.715 0.28463269 1.13
0.715 0.28463269 1.33
0.72 0.2686938 0.54
0.72 0.2686938 0.74
0.72 0.2686938 0.94
0.72 0.2686938 1.14
0.72 0.2686938 1.34
0.9 0.24893164 0.5
0.9 0.24893164 0.7
0.9 0.24893164 0.9
0.9 0.24893164 1.1
0.9 0.24893164 1.3
0.905 0.28216186 0.51
0.905 0.28216186 0.71
0.905 0.28216186 0.91
0.905 0.28216186 1.11
0.905 0.28216186 1.31
0.91 0.21024317 0.52
0.91 0.21024317 0.72
0.91 0.21024317 0.92
0.91 0.21024317 1.12
0.91 0.21024317 1.32
0.915 0.28463269 0.53
0.915 0.28463269 0.73
0.915 0.28463269 0.93
0.915 0.28463269 1.13
0.915 0.28463269 1.33
0.92 0.2686938 0.54
0.92 0.2686938 0.74
0.92 0.2686938 0.94
0.92 0.2686938 1.14
0.92 0.2686938 1.34
1.1 0.24893164 0.5
1.1 0.24893164 0.7
1.1 0.24893164 0.9
1.1 0.24893164 1.1
1.1 0.24893164 1.3
1.105 0.28216186 0.51
1.105 0.28216186 0.71
1.105 0.28216186 0.91
1.105 0.28216186 1.11
1.105 0.28216186 1.31
1.11 0.21024317 0.52
1.11 0.21024317 0.72
1.11 0.21024317 0.92
1.11 0.21024317 1.12
1.11 0.21024317 1.32
1.115 0.28463269 0.53
1.115 0.28463269 0.73
1.115 0.28463269 0.93
1.115 0.28463269 1.13
1.115 0.28463269 1.33
1.12 0.2686938 0.54
1.12 0.2686938 0.74
1.12 0.2686938 0.94
1.12 0.2686938 1.14
1.12 0.2686938 1.34
1.3 0.24893164 0.5
1.3 0.24893164 0.7
1.3 0.24893164 0.9
1.3 0.24893164 1.1
1.3 0.24893164 1.3
1.305 0.28216186 0.51
1.305 0.28216186 0.71
1.305 0.28216186 0.91
1.305 0.28216186 1.11
1.305 0.28216186 1.31
1.31 0.21024317 0.52
1.31 0.21024317 0.72
1.31 0.21024317 0.92
1.31 0.21024317 1.12
1.31 0.21024317 1.32
1.315 0.28463269 0.53
1.315 0.28463269 0.73
1.315 0.28463269 0.93
1.315 0.28463269 1.13
1.315 0.28463269 1.33
1.32 0.2686938 0.54
1.32 0.2686938 0.74
1.32 0.2686938 0.94
1.32 0.2686938 1.14
1.32 0.2686938 1.34
CELLS 0 0
CELL_TYPES 0
POINT_DATA 125
SCALARS m double
LOOKUP_TABLE default
1
1
1
1
1
1
1
1
1
1
1
1
1
1
1
1
1
1
1
1
1
1
1
1
1
1
1
1
1
1
1
1
1
1
1
1
1
1
1
1
1
1
1
1
1
1
1
1
1
1
1
1
1
1
1
1
1
1
1
1
1
1
1
1
1
1
1
1
1
1
1
1
1
1
1
1
1
1
1
1
1
1
1
1
1
1
1
1
1
1
1
1
1
1
1
1
1
1
1
1
1
1
1
1
1
1
1
1
1
1
1
1
1
1
1
1
1
1
1
1
1
1
1
1
1
SCALARS r double
LOOKUP_TABLE default
0.1
0.1
0.1
0.1
0.1
0.1
0.1
0.1
0.1
0.1
0.1
0.1
0.1
0.1
0.1
0.1
0.1
0.1
0.1
0.1
0.1
0.1
0.1
0.1
0.1
0.1
0.1
0.1
0.1
0.1
0.1
0.1
0.1
0.1
0.1
0.1
0.1
0.1
0.1
0.1
0.1
0.1
0.1
0.1
0.1
0.1
0.1
0.1
0.1
0.1
0.1
0.1
0.1
0.1
0.1
0.1
0.1
0.1
0.1
0.1
0.1
0.1
0.1
0.1
0.1
0.1
0.1
0.1
0.1
0.1
0.1
0.1
0.1
0.1
0.1
0.1
0.1
0.1
0.1
0.1
0.1
0.1
0.1
0.1
0.1
0.1
0.1
0.1
0.1
0.1
0.1
0.1
0.1
0.1
0.1
0.1
0.1
0.1
0.1
0.1
0.1
0.1
0.1
0.1
0.1
0.1
0.1
0.1
0.1
0.1
0.1
0.1
0.1
0.1
0.1
0.1
0.1
0.1
0.1
0.1
0.1
0.1
0.1
0.1
0.1
VECTORS v double
2.9714991e-19 -0.13221241 2.9714991e-19
2.9714991e-19 -0.13221241 4.1600987e-19
2.9714991e-19 -0.13221241 5.3486984e-19
2.9714991e-19 -0.13221241 6.537298e-19
2.9714991e-19 -0.13221241 7.7258977e-19
6.0178706e-21 -0.011200122 6.0774534e-21
6.0178706e-21 -0.011200122 8.4607685e-21
6.0178706e-21 -0.011200122 1.0844084e-20
6.0178706e-21 -0.011200122 1.3227399e-20
6.0178706e-21 -0.011200122 1.5610714e-20
2.3863706e-19 -0.092306059 2.4331622e-19
2.3863706e-19 -0.092306059 3.3689938e-19
2.3863706e-19 -0.092306059 4.3048254e-19
2.3863706e-19 -0.092306059 5.240657e-19
2.3863706e-19 -0.092306059 6.1764886e-19
-1.05423e-19 0.10763736 -1.0849358e-19
-1.05423e-19 0.10763736 -1.4943455e-19
-1.05423e-19 0.10763736 -1.9037552e-19
-1.05423e-19 0.10763736 -2.3131649e-19
-1.05423e-19 0.10763736 -2.7225746e-19
-3.4468444e-20 -0.069799998 -3.5794153e-20
-3.4468444e-20 -0.069799998 -4.9051247e-20
-3.4468444e-20 -0.069799998 -6.230834e-20
-3.4468444e-20 -0.069799998 -7.5565434e-20
-3.4468444e-20 -0.069799998 -8.8822527e-20
4.1600987e-19 -0.13221241 2.9714991e-19
4.1600987e-19 -0.13221241 4.1600987e-19
4.1600987e-19 -0.13221241 5.3486984e-19
4.1600987e-19 -0.13221241 6.537298e-19
4.1600987e-19 -0.13221241 7.7258977e-19
8.4011856e-21 -0.011200122 6.0774534e-21
8.4011856e-21 -0.011200122 8.4607685e-21
8.4011856e-21 -0.011200122 1.0844084e-20
8.4011856e-21 -0.011200122 1.3227399e-20
8.4011856e-21 -0.011200122 1.5610714e-20
3.3222022e-19 -0.092306059 2.4331622e-19
3.3222022e-19 -0.092306059 3.3689938e-19
3.3222022e-19 -0.092306059 4.3048254e-19
3.3222022e-19 -0.092306059 5.240657e-19
3.3222022e-19 -0.092306059 6.1764886e-19
-1.4636398e-19 0.10763736 -1.0849358e-19
-1.4636398e-19 0.10763736 -1.4943455e-19
-1.4636398e-19 0.10763736 -1.9037552e-19
-1.4636398e-19 0.10763736 -2.3131649e-19
-1.4636398e-19 0.10763736 -2.7225746e-19
-4.7725537e-20 -0.069799998 -3.5794153e-20
-4.7725537e-20 -0.069799998 -4.9051247e-20
-4.7725537e-20 -0.069799998 -6.230834e-20
-4.7725537e-20 -0.069799998 -7.5565434e-20
-4.7725537e-20 -0.069799998 -8.8822527e-20
5.3486984e-19 -0.13221241 2.9714991e-19
5.3486984e-19 -0.13221241 4.1600987e-19
5.3486984e-19 -0.13221241 5.3486984e-19
5.3486984e-19 -0.13221241 6.537298e-19
5.3486984e-19 -0.13221241 7.7258977e-19
1.0784501e-20 -0.011200122 6.0774534e-21
1.0784501e-20 -0.011200122 8.4607685e-21
1.0784501e-20 -0.011200122 1.0844084e-20
1.0784501e-20 -0.011200122 1.3227399e-20
1.0784501e-20 -0.011200122 1.5610714e-20
4.2580338e-19 -0.092306059 2.4331622e-19
4.2580338e-19 -0.092306059 3.3689938e-19
4.2580338e-19 -0.092306059 4.3048254e-19
4.2580338e-19 -0.092306059 5.240657e-19
4.2580338e-19 -0.092306059 6.1764886e-19
-1.8730495e-19 0.10763736 -1.0849358e-19
-1.8730495e-19 0.10763736 -1.4943455e-19
-1.8730495e-19 0.10763736 -1.9037552e-19
-1.8730495e-19 0.10763736 -2.3131649e-19
-1.8730495e-19 0.10763736 -2.7225746e-19
-6.0982631e-20 -0.069799998 -3.5794153e-20
-6.0982631e-20 -0.069799998 -4.9051247e-20
-6.0982631e-20 -0.069799998 -6.230834e-20
-6.0982631e-20 -0.069799998 -7.5565434e-20
-6.0982631e-20 -0.069799998 -8.8822527e-20
6.537298e-19 -0.13221241 2.9714991e-19
6.537298e-19 -0.13221241 4.1600987e-19
6.537298e-19 -0.13221241 5.3486984e-19
6.537298e-19 -0.13221241 6.537298e-19
6.537298e-19 -0.13221241 7.7258977e-19
1.3167816e-20 -0.011200122 6.0774534e-21
1.3167816e-20 -0.011200122 8.4607685e-21
1.3167816e-20 -0.011200122 1.0844084e-20
1.3167816e-20 -0.011200122 1.3227399e-20
1.3167816e-20 -0.011200122 1.5610714e-20
5.1938654e-19 -0.092306059 2.4331622e-19
5.1938654e-19 -0.092306059 3.3689938e-19
5.1938654e-19 -0.092306059 4.3048254e-19
5.1938654e-19 -0.092306059 5.240657e-19
5.1938654e-19 -0.092306059 6.1764886e-19
-2.2824592e-19 0.10763736 -1.0849358e-19
-2.2824592e-19 0.10763736 -1.4943455e-19
-2.2824592e-19 0.10763736 -1.9037552e-19
-2.2824592e-19 0.10763736 -2.3131649e-19
-2.2824592e-19 0.10763736 -2.7225746e-19
-7.4239724e-20 -0.069799998 -3.5794153e-20
-7.4239724e-20 -0.069799998 -4.9051247e-20
-7.4239724e-20 -0.069799998 -6.230834e-20
-7.4239724e-20 -0.069799998 -7.5565434e-20
-7.4239724e-20 -0.069799998 -8.8822527e-20
7.7258977e-19 -0.13221241 2.9714991e-19
7.7258977e-19 -0.13221241 4.1600987e-19
7.7258977e-19 -0.13221241 5.3486984e-19
7.7258977e-19 -0.13221241 6.537298e-19
7.7258977e-19 -0.13221241 7.7258977e-19
1.5551131e-20 -0.011200122 6.0774534e-21
1.5551131e-20 -0.011200122 8.4607685e-21
1.5551131e-20 -0.011200122 1.0844084e-20
1.5551131e-20 -0.011200122 1.3227399e-20
1.5551131e-20 -0.011200122 1.5610714e-20
6.129697e-19 -0.092306059 2.4331622e-19
6.129697e-19 -0.092306059 3.3689938e-19
6.129697e-19 -0.092306059 4.3048254e-19
6.129697e-19 -0.092306059 5.240657e-19
6.129697e-19 -0.092306059 6.1764886e-19
-2.6918689e-19 0.10763736 -1.0849358e-19
-2.6918689e-19 0.10763736 -1.4943455e-19
-2.6918689e-19 0.10763736 -1.9037552e-19
-2.6918689e-19 0.10763736 -2.3131649e-19
-2.6918689e-19 0.10763736 -2.7225746e-19
-8.7496818e-20 -0.069799998 -3.5794153e-20
-8.7496818e-20 -0.069799998 -4.9051247e-20
-8.7496818e-20 -0.069799998 -6.230834e-20
-8.7496818e-20 -0.069799998 -7.5565434e-20
-8.7496818e-20 -0.069799998 -8.8822527e-20
VECTORS q double
1 -1.4207009e-13 3.8151926e-29
1 -1.4207009e-13 5.3410541e-29
1 -1.4207009e-13 6.8668506e-29
1 -1.4207009e-13 8.3931618e-29
1 -1.4207009e-13 9.9193228e-29
1 -1.1929286e-15 8.2200438e-33
1 -1.1929286e-15 1.1485556e-32
1 -1.1929286e-15 1.4692645e-32
1 -1.1929286e-15 1.7973762e-32
1 -1.1929286e-15 2.1095425e-32
1 -1.2479449e-13 2.7261303e-29
1 -1.2479449e-13 3.7748089e-29
1 -1.2479449e-13 4.8220563e-29
1 -1.2479449e-13 5.8713248e-29
1 -1.2479449e-13 6.9219817e-29
1 8.2900144e-14 9.2391004e-30
1 8.2900144e-14 1.271493e-29
1 8.2900144e-14 1.6213561e-29
1 8.2900144e-14 1.9702227e-29
1 8.2900144e-14 2.317347e-29
1 2.4935277e-14 8.9851367e-31
1 2.4935277e-14 1.2265194e-30
1 2.4935277e-14 1.5608125e-30
1 2.4935277e-14 1.8915043e-30
1 2.4935277e-14 2.2211302e-30
1 -1.9889813e-13 5.3415325e-29
1 -1.9889813e-13 7.4779195e-29
1 -1.9889813e-13 9.6137498e-29
1 -1.9889813e-13 1.1750938e-28
1 -1.9889813e-13 1.3887323e-28
1 -1.6653756e-15 1.149354e-32
1 -1.6653756e-15 1.6039973e-32
1 -1.6653756e-15 2.0542606e-32
1 -1.6653756e-15 2.5174037e-32
1 -1.6653756e-15 2.946219e-32
1 -1.7373351e-13 3.794394e-29
1 -1.7373351e-13 5.2540812e-29
1 -1.7373351e-13 6.7120495e-29
1 -1.7373351e-13 8.1726619e-29
1 -1.7373351e-13 9.6348087e-29
1 1.1509437e-13 1.2827822e-29
1 1.1509437e-13 1.7653855e-29
1 1.1509437e-13 2.2511882e-29
1 1.1509437e-13 2.7357287e-29
1 1.1509437e-13 3.2176982e-29
1 3.4525768e-14 1.2441914e-30
1 3.4525768e-14 1.6987417e-30
1 3.4525768e-14 2.1628799e-30
1 3.4525768e-14 2.6208276e-30
1 3.4525768e-14 3.0765872e-30
1 -2.5572617e-13 6.867876e-29
1 -2.5572617e-13 9.6144587e-29
1 -2.5572617e-13 1.2361408e-28
1 -2.5572617e-13 1.5108845e-28
1 -2.5572617e-13 1.7855616e-28
1 -2.1378225e-15 1.4770268e-32
1 -2.1378225e-15 2.0609424e-32
1 -2.1378225e-15 2.637426e-32
1 -2.1378225e-15 3.2281265e-32
1 -2.1378225e-15 3.7970427e-32
1 -2.2267252e-13 4.8658935e-29
1 -2.2267252e-13 6.7377781e-29
1 -2.2267252e-13 8.606835e-29
1 -2.2267252e-13 1.0480116e-28
1 -2.2267252e-13 1.2355418e-28
1 1.472886e-13 1.6412794e-29
1 1.472886e-13 2.2587413e-29
1 1.472886e-13 2.8801717e-29
1 1.472886e-13 3.5002258e-29
1 1.472886e-13 4.1166827e-29
1 4.4116259e-14 1.5902436e-30
1 4.4116259e-14 2.1708813e-30
1 4.4116259e-14 2.7631858e-30
1 4.4116259e-14 3.3476952e-30
1 4.4116259e-14 3.9312616e-30
1 -3.125542e-13 8.3936252e-29
1 -3.125542e-13 1.1750807e-28
1 -3.125542e-13 1.5107719e-28
1 -3.125542e-13 1.846561e-28
1 -3.125542e-13 2.1822092e-28
1 -2.6102695e-15 1.8042904e-32
1 -2.6102695e-15 2.5216612e-32
1 -2.6102695e-15 3.2211016e-32
1 -2.6102695e-15 3.9470995e-32
1 -2.6102695e-15 4.6286492e-32
1 -2.7161154e-13 5.9353889e-29
1 -2.7161154e-13 8.2185717e-29
1 -2.7161154e-13 1.0498731e-28
1 -2.7161154e-13 1.2783495e-28
1 -2.7161154e-13 1.5071217e-28
1 1.7948284e-13 2.0005142e-29
1 1.7948284e-13 2.7529989e-29
1 1.7948284e-13 3.5106363e-29
1 1.7948284e-13 4.2661257e-29
1 1.7948284e-13 5.0176265e-29
1 5.3706751e-14 1.9357627e-30
1 5.3706751e-14 2.6424955e-30
1 5.3706751e-14 3.3643678e-30
1 5.3706751e-14 4.0758539e-30
1 5.3706751e-14 4.7865835e-30
1 -3.6938224e-13 9.9196064e-29
1 -3.6938224e-13 1.388733e-28
1 -3.6938224e-13 1.7853888e-28
1 -3.6938224e-13 2.1823045e-28
1 -3.6938224e-13 2.5791795e-28
1 -3.0827165e-15 2.1398848e-32
1 -3.0827165e-15 2.9854494e-32
1 -3.0827165e-15 3.8278271e-32
1 -3.0827165e-15 4.6771586e-32
1 -3.0827165e-15 5.4885259e-32
1 -3.2055055e-13 7.0034181e-29
1 -3.2055055e-13 9.6979251e-29
1 -3.2055055e-13 1.2387816e-28
1 -3.2055055e-13 1.5084153e-28
1 -3.2055055e-13 1.7783275e-28
1 2.1167707e-13 2.3589755e-29
1 2.1167707e-13 3.2470516e-29
1 2.1167707e-13 4.1400092e-29
1 2.1167707e-13 5.0309743e-29
1 2.1167707e-13 5.917411e-29
1 6.3297242e-14 2.2848488e-30
1 6.3297242e-14 3.1197605e-30
1 6.3297242e-14 3.96967e-30
1 6.3297242e-14 4.8102962e-30
1 6.3297242e-14 5.6488777e-30
