# vtk DataFile Version 4.0
hesp visualization file
ASCII
DATASET UNSTRUCTURED_GRID
POINTS 125 double
0.5 0.20878628 0.5
0.5 0.20878628 0.7
0.5 0.20878628 0.9
0.5 0.20878628 1.1
0.5 0.20878628 1.3
0.505 0.25937787 0.51
0.505 0.25937787 0.71
0.505 0.25937787 0.91
0.505 0.25937787 1.11
0.505 0.25937787 1.31
0.51 0.21057928 0.52
0.51 0.21057928 0.72
0.51 0.21057928 0.92
0.51 0.21057928 1.12
0.51 0.21057928 1.32
0.515 0.26279239 0.53
0.515 0.26279239 0.73
0.515 0.26279239 0.93
0.515 0.26279239 1.13
0.515 0.26279239 1.33
0.52 0.22323242 0.54
0.52 0.22323242 0.74
0.52 0.22323242 0.94
0.52 0.22323242 1.14
0.52 0.22323242 1.34
0.7 0.20878628 0.5
0.7 0.20878628 0.7
0.7 0.20878628 0.9
0.7 0.20878628 1.1
0.7 0.20878628 1.3
0.705 0.25937787 0.51
0.705 0.25937787 0.71
0.705 0.25937787 0.91
0.705 0.25937787 1.11
0.705 0.25937787 1.31
0.71 0.21057928 0.52
0.71 0.21057928 0.72
0.71 0.21057928 0.92
0.71 0.21057928 1.12
0.71 0.21057928 1.32
0.715 0.26279239 0.53
0.715 0.26279239 0.73
0.715 0.26279239 0.93
0.715 0.26279239 1.13
0.715 0.26279239 1.33
0.72 0.22323242 0.54
0.72 0.22323242 0.74
0.72 0.22323242 0.94
0.72 0.22323242 1.14
0.72 0.22323242 1.34
0.9 0.20878628 0.5
0.9 0.20878628 0.7
0.9 0.20878628 0.9
0.9 0.20878628 1.1
0.9 0.20878628 1.3
0.905 0.25937787 0.51
0.905 0.25937787 0.71
0.905 0.25937787 0.91
0.905 0.25937787 1.11
0.905 0.25937787 1.31
0.91 0.21057928 0.52
0.91 0.21057928 0.72
0.91 0.21057928 0.92
0.91 0.21057928 1.12
0.91 0.21057928 1.32
0.915 0.26279239 0.53
0.915 0.26279239 0.73
0.915 0.26279239 0.93
0.915 0.26279239 1.13
0.915 0.26279239 1.33
0.92 0.22323242 0.54
0.92 0.22323242 0.74
0.92 0.22323242 0.94
0.92 0.22323242 1.14
0.92 0.22323242 1.34
1.1 0.20878628 0.5
1.1 0.20878628 0.7
1.1 0.20878628 0.9
1.1 0.20878628 1.1
1.1 0.20878628 1.3
1.105 0.25937787 0.51
1.105 0.25937787 0.71
1.105 0.25937787 0.91
1.105 0.25937787 1.11
1.105 0.25937787 1.31
1.11 0.21057928 0.52
1.11 0.21057928 0.72
1.11 0.21057928 0.92
1.11 0.21057928 1.12
1.11 0.21057928 1.32
1.115 0.26279239 0.53
1.115 0.26279239 0.73
1.115 0.26279239 0.93
1.115 0.26279239 1.13
1.115 0.26279239 1.33
1.12 0.22323242 0.54
1.12 0.22323242 0.74
1.12 0.22323242 0.94
1.12 0.22323242 1.14
1.12 0.22323242 1.34
1.3 0.20878628 0.5
1.3 0.20878628 0.7
1.3 0.20878628 0.9
1.3 0.20878628 1.1
1.3 0.20878628 1.3
1.305 0.25937787 0.51
1.305 0.25937787 0.71
1.305 0.25937787 0.91
1.305 0.25937787 1.11
1.305 0.25937787 1.31
1.31 0.21057928 0.52
1.31 0.21057928 0.72
1.31 0.21057928 0.92
1.31 0.21057928 1.12
1.31 0.21057928 1.32
1.315 0.26279239 0.53
1.315 0.26279239 0.73
1.315 0.26279239 0.93
1.315 0.26279239 1.13
1.315 0.26279239 1.33
1.32 0.22323242 0.54
1.32 0.22323242 0.74
1.32 0.22323242 0.94
1.32 0.22323242 1.14
1.32 0.22323242 1.34
CELLS 0 0
CELL_TYPES 0
POINT_DATA 125
SCALARS m double
LOOKUP_TABLE default
1
1
1
1
1
1
1
1
1
1
1
1
1
1
1
1
1
1
1
1
1
1
1
1
1
1
1
1
1
1
1
1
1
1
1
1
1
1
1
1
1
1
1
1
1
1
1
1
1
1
1
1
1
1
1
1
1
1
1
1
1
1
1
1
1
1
1
1
1
1
1
1
1
1
1
1
1
1
1
1
1
1
1
1
1
1
1
1
1
1
1
1
1
1
1
1
1
1
1
1
1
1
1
1
1
1
1
1
1
1
1
1
1
1
1
1
1
1
1
1
1
1
1
1
1
SCALARS r double
LOOKUP_TABLE default
0.1
0.1
0.1
0.1
0.1
0.1
0.1
0.1
0.1
0.1
0.1
0.1
0.1
0.1
0.1
0.1
0.1
0.1
0.1
0.1
0.1
0.1
0.1
0.1
0.1
0.1
0.1
0.1
0.1
0.1
0.1
0.1
0.1
0.1
0.1
0.1
0.1
0.1
0.1
0.1
0.1
0.1
0.1
0.1
0.1
0.1
0.1
0.1
0.1
0.1
0.1
0.1
0.1
0.1
0.1
0.1
0.1
0.1
0.1
0.1
0.1
0.1
0.1
0.1
0.1
0.1
0.1
0.1
0.1
0.1
0.1
0.1
0.1
0.1
0.1
0.1
0.1
0.1
0.1
0.1
0.1
0.1
0.1
0.1
0.1
0.1
0.1
0.1
0.1
0.1
0.1
0.1
0.1
0.1
0.1
0.1
0.1
0.1
0.1
0.1
0.1
0.1
0.1
0.1
0.1
0.1
0.1
0.1
0.1
0.1
0.1
0.1
0.1
0.1
0.1
0.1
0.1
0.1
0.1
0.1
0.1
0.1
0.1
0.1
0.1
VECTORS v double
1.0390602e-18 -0.33976528 1.0390602e-18
1.0390602e-18 -0.33976528 1.4546843e-18
1.0390602e-18 -0.33976528 1.8703084e-18
1.0390602e-18 -0.33976528 2.2859325e-18
1.0390602e-18 -0.33976528 2.7015566e-18
3.6354421e-19 -0.12724867 3.6714366e-19
3.6354421e-19 -0.12724867 5.1112157e-19
3.6354421e-19 -0.12724867 6.5509947e-19
3.6354421e-19 -0.12724867 7.9907738e-19
3.6354421e-19 -0.12724867 9.4305528e-19
9.9846848e-19 0.082925798 1.0180463e-18
9.9846848e-19 0.082925798 1.4096026e-18
9.9846848e-19 0.082925798 1.8011588e-18
9.9846848e-19 0.082925798 2.1927151e-18
9.9846848e-19 0.082925798 2.5842714e-18
-2.1065001e-19 -0.036790211 -2.1678545e-19
-2.1065001e-19 -0.036790211 -2.9859128e-19
-2.1065001e-19 -0.036790211 -3.8039711e-19
-2.1065001e-19 -0.036790211 -4.6220294e-19
-2.1065001e-19 -0.036790211 -5.4400877e-19
-1.4395134e-20 0.039862715 -1.4948793e-20
-1.4395134e-20 0.039862715 -2.0485383e-20
-1.4395134e-20 0.039862715 -2.6021973e-20
-1.4395134e-20 0.039862715 -3.1558563e-20
-1.4395134e-20 0.039862715 -3.7095153e-20
1.4546843e-18 -0.33976528 1.0390602e-18
1.4546843e-18 -0.33976528 1.4546843e-18
1.4546843e-18 -0.33976528 1.8703084e-18
1.4546843e-18 -0.33976528 2.2859325e-18
1.4546843e-18 -0.33976528 2.7015566e-18
5.0752212e-19 -0.12724867 3.6714366e-19
5.0752212e-19 -0.12724867 5.1112157e-19
5.0752212e-19 -0.12724867 6.5509947e-19
5.0752212e-19 -0.12724867 7.9907738e-19
5.0752212e-19 -0.12724867 9.4305528e-19
1.3900247e-18 0.082925798 1.0180463e-18
1.3900247e-18 0.082925798 1.4096026e-18
1.3900247e-18 0.082925798 1.8011588e-18
1.3900247e-18 0.082925798 2.1927151e-18
1.3900247e-18 0.082925798 2.5842714e-18
-2.9245584e-19 -0.036790211 -2.1678545e-19
-2.9245584e-19 -0.036790211 -2.9859128e-19
-2.9245584e-19 -0.036790211 -3.8039711e-19
-2.9245584e-19 -0.036790211 -4.6220294e-19
-2.9245584e-19 -0.036790211 -5.4400877e-19
-1.9931724e-20 0.039862715 -1.4948793e-20
-1.9931724e-20 0.039862715 -2.0485383e-20
-1.9931724e-20 0.039862715 -2.6021973e-20
-1.9931724e-20 0.039862715 -3.1558563e-20
-1.9931724e-20 0.039862715 -3.7095153e-20
1.8703084e-18 -0.33976528 1.0390602e-18
1.8703084e-18 -0.33976528 1.4546843e-18
1.8703084e-18 -0.33976528 1.8703084e-18
1.8703084e-18 -0.33976528 2.2859325e-18
1.8703084e-18 -0.33976528 2.7015566e-18
6.5150002e-19 -0.12724867 3.6714366e-19
6.5150002e-19 -0.12724867 5.1112157e-19
6.5150002e-19 -0.12724867 6.5509947e-19
6.5150002e-19 -0.12724867 7.9907738e-19
6.5150002e-19 -0.12724867 9.4305528e-19
1.781581e-18 0.082925798 1.0180463e-18
1.781581e-18 0.082925798 1.4096026e-18
1.781581e-18 0.082925798 1.8011588e-18
1.781581e-18 0.082925798 2.1927151e-18
1.781581e-18 0.082925798 2.5842714e-18
-3.7426167e-19 -0.036790211 -2.1678545e-19
-3.7426167e-19 -0.036790211 -2.9859128e-19
-3.7426167e-19 -0.036790211 -3.8039711e-19
-3.7426167e-19 -0.036790211 -4.6220294e-19
-3.7426167e-19 -0.036790211 -5.4400877e-19
-2.5468314e-20 0.039862715 -1.4948793e-20
-2.5468314e-20 0.039862715 -2.0485383e-20
-2.5468314e-20 0.039862715 -2.6021973e-20
-2.5468314e-20 0.039862715 -3.1558563e-20
-2.5468314e-20 0.039862715 -3.7095153e-20
2.2859325e-18 -0.33976528 1.0390602e-18
2.2859325e-18 -0.33976528 1.4546843e-18
2.2859325e-18 -0.33976528 1.8703084e-18
2.2859325e-18 -0.33976528 2.2859325e-18
2.2859325e-18 -0.33976528 2.7015566e-18
7.9547793e-19 -0.12724867 3.6714366e-19
7.9547793e-19 -0.12724867 5.1112157e-19
7.9547793e-19 -0.12724867 6.5509947e-19
7.9547793e-19 -0.12724867 7.9907738e-19
7.9547793e-19 -0.12724867 9.4305528e-19
2.1731373e-18 0.082925798 1.0180463e-18
2.1731373e-18 0.082925798 1.4096026e-18
2.1731373e-18 0.082925798 1.8011588e-18
2.1731373e-18 0.082925798 2.1927151e-18
2.1731373e-18 0.082925798 2.5842714e-18
-4.560675e-19 -0.036790211 -2.1678545e-19
-4.560675e-19 -0.036790211 -2.9859128e-19
-4.560675e-19 -0.036790211 -3.8039711e-19
-4.560675e-19 -0.036790211 -4.6220294e-19
-4.560675e-19 -0.036790211 -5.4400877e-19
-3.1004904e-20 0.039862715 -1.4948793e-20
-3.1004904e-20 0.039862715 -2.0485383e-20
-3.1004904e-20 0.039862715 -2.6021973e-20
-3.1004904e-20 0.039862715 -3.1558563e-20
-3.1004904e-20 0.039862715 -3.7095153e-20
2.7015566e-18 -0.33976528 1.0390602e-18
2.7015566e-18 -0.33976528 1.4546843e-18
2.7015566e-18 -0.33976528 1.8703084e-18
2.7015566e-18 -0.33976528 2.2859325e-18
2.7015566e-18 -0.33976528 2.7015566e-18
9.3945584e-19 -0.12724867 3.6714366e-19
9.3945584e-19 -0.12724867 5.1112157e-19
9.3945584e-19 -0.12724867 6.5509947e-19
9.3945584e-19 -0.12724867 7.9907738e-19
9.3945584e-19 -0.12724867 9.4305528e-19
2.5646935e-18 0.082925798 1.0180463e-18
2.5646935e-18 0.082925798 1.4096026e-18
2.5646935e-18 0.082925798 1.8011588e-18
2.5646935e-18 0.082925798 2.1927151e-18
2.5646935e-18 0.082925798 2.5842714e-18
-5.3787333e-19 -0.036790211 -2.1678545e-19
-5.3787333e-19 -0.036790211 -2.9859128e-19
-5.3787333e-19 -0.036790211 -3.8039711e-19
-5.3787333e-19 -0.036790211 -4.6220294e-19
-5.3787333e-19 -0.036790211 -5.4400877e-19
-3.6541494e-20 0.039862715 -1.4948793e-20
-3.6541494e-20 0.039862715 -2.0485383e-20
-3.6541494e-20 0.039862715 -2.6021973e-20
-3.6541494e-20 0.039862715 -3.1558563e-20
-3.6541494e-20 0.039862715 -3.7095153e-20
VECTORS q double
1 -1.3228718e-12 1.2920574e-27
1 -1.3228718e-12 1.8088683e-27
1 -1.3228718e-12 2.3256819e-27
1 -1.3228718e-12 2.8425227e-27
1 -1.3228718e-12 3.359445e-27
1 -2.772772e-13 9.7998825e-29
1 -2.772772e-13 1.3645007e-28
1 -2.772772e-13 1.7484856e-28
1 -2.772772e-13 2.1333225e-28
1 -2.772772e-13 2.5175945e-28
1 -1.106083e-12 9.6747153e-28
1 -1.106083e-12 1.3395677e-27
1 -1.106083e-12 1.7116006e-27
1 -1.106083e-12 2.0837634e-27
1 -1.106083e-12 2.4560649e-27
1 3.9858955e-13 8.3922623e-29
1 3.9858955e-13 1.1553194e-28
1 3.9858955e-13 1.4727762e-28
1 3.9858955e-13 1.7896191e-28
1 3.9858955e-13 2.1056954e-28
1 8.4507777e-14 1.1457462e-30
1 8.4507777e-14 1.5262115e-30
1 8.4507777e-14 1.9815175e-30
1 8.4507777e-14 2.3716144e-30
1 8.4507777e-14 2.7833818e-30
1 -1.8520205e-12 1.8088898e-27
1 -1.8520205e-12 2.5324306e-27
1 -1.8520205e-12 3.256168e-27
1 -1.8520205e-12 3.9796544e-27
1 -1.8520205e-12 4.7033341e-27
1 -3.8708995e-13 1.3679359e-28
1 -3.8708995e-13 1.9047428e-28
1 -3.8708995e-13 2.4408031e-28
1 -3.8708995e-13 2.9778544e-28
1 -3.8708995e-13 3.5143243e-28
1 -1.539841e-12 1.3469265e-27
1 -1.539841e-12 1.8650062e-27
1 -1.539841e-12 2.3829358e-27
1 -1.539841e-12 2.9010345e-27
1 -1.539841e-12 3.4192647e-27
1 5.5338161e-13 1.1655393e-28
1 5.5338161e-13 1.6045841e-28
1 5.5338161e-13 2.04554e-28
1 5.5338161e-13 2.4855655e-28
1 5.5338161e-13 2.9245071e-28
1 1.1701077e-13 1.5768805e-30
1 1.1701077e-13 2.1018909e-30
1 1.1701077e-13 2.734785e-30
1 1.1701077e-13 3.2704645e-30
1 1.1701077e-13 3.8331716e-30
1 -2.3811692e-12 2.3257264e-27
1 -2.3811692e-12 3.2557936e-27
1 -2.3811692e-12 4.1862661e-27
1 -2.3811692e-12 5.1165896e-27
1 -2.3811692e-12 6.0470146e-27
1 -4.969027e-13 1.7561765e-28
1 -4.969027e-13 2.4452968e-28
1 -4.969027e-13 3.1333899e-28
1 -4.969027e-13 3.8228994e-28
1 -4.969027e-13 4.5116144e-28
1 -1.9735991e-12 1.7264151e-27
1 -1.9735991e-12 2.3904532e-27
1 -1.9735991e-12 3.0542764e-27
1 -1.9735991e-12 3.7184399e-27
1 -1.9735991e-12 4.3827426e-27
1 7.0817367e-13 1.4911673e-28
1 7.0817367e-13 2.052842e-28
1 7.0817367e-13 2.6168994e-28
1 7.0817367e-13 3.1799356e-28
1 7.0817367e-13 3.741492e-28
1 1.4951376e-13 2.0368691e-30
1 1.4951376e-13 2.7148955e-30
1 1.4951376e-13 3.5260987e-30
1 1.4951376e-13 4.2170485e-30
1 1.4951376e-13 4.9496425e-30
1 -2.910318e-12 2.8425275e-27
1 -2.910318e-12 3.9794307e-27
1 -2.910318e-12 5.1165064e-27
1 -2.910318e-12 6.2535583e-27
1 -2.910318e-12 7.3907743e-27
1 -6.0671545e-13 2.1439055e-28
1 -6.0671545e-13 2.9851659e-28
1 -6.0671545e-13 3.8251765e-28
1 -6.0671545e-13 4.6669585e-28
1 -6.0671545e-13 5.5077625e-28
1 -2.4073571e-12 2.1059962e-27
1 -2.4073571e-12 2.9160208e-27
1 -2.4073571e-12 3.7258043e-27
1 -2.4073571e-12 4.5359005e-27
1 -2.4073571e-12 5.3463294e-27
1 8.6296573e-13 1.8176153e-28
1 8.6296573e-13 2.5022071e-28
1 8.6296573e-13 3.1897766e-28
1 8.6296573e-13 3.8759973e-28
1 8.6296573e-13 4.5604934e-28
1 1.8201675e-13 2.4692219e-30
1 1.8201675e-13 3.290641e-30
1 1.8201675e-13 4.2772751e-30
1 1.8201675e-13 5.1138858e-30
1 1.8201675e-13 6.0040263e-30
1 -3.4394667e-12 3.359256e-27
1 -3.4394667e-12 4.7028161e-27
1 -3.4394667e-12 6.0466136e-27
1 -3.4394667e-12 7.3903731e-27
1 -3.4394667e-12 8.7343581e-27
1 -7.165282e-13 2.5322404e-28
1 -7.165282e-13 3.5258699e-28
1 -7.165282e-13 4.5180298e-28
1 -7.165282e-13 5.5123673e-28
1 -7.165282e-13 6.5054159e-28
1 -2.8411151e-12 2.4850424e-27
1 -2.8411151e-12 3.4408746e-27
1 -2.8411151e-12 4.3963799e-27
1 -2.8411151e-12 5.3525848e-27
1 -2.8411151e-12 6.3086195e-27
1 1.0177578e-12 2.1436252e-28
1 1.0177578e-12 2.9512934e-28
1 1.0177578e-12 3.7620145e-28
1 1.0177578e-12 4.5713286e-28
1 1.0177578e-12 5.3787447e-28
1 2.1451974e-13 2.9468121e-30
1 2.1451974e-13 3.9310645e-30
1 2.1451974e-13 5.1012898e-30
1 2.1451974e-13 6.1039078e-30
1 2.1451974e-13 7.1642362e-30
