# vtk DataFile Version 4.0
hesp visualization file
ASCII
DATASET UNSTRUCTURED_GRID
POINTS 125 double
0.5 0.25343631 0.5
0.5 0.25343631 0.7
0.5 0.25343631 0.9
0.5 0.25343631 1.1
0.5 0.25343631 1.3
0.505 0.21176357 0.51
0.505 0.21176357 0.71
0.505 0.21176357 0.91
0.505 0.21176357 1.11
0.505 0.21176357 1.31
0.51 0.23422195 0.52
0.51 0.23422195 0.72
0.51 0.23422195 0.92
0.51 0.23422195 1.12
0.51 0.23422195 1.32
0.515 0.20154102 0.53
0.515 0.20154102 0.73
0.515 0.20154102 0.93
0.515 0.20154102 1.13
0.515 0.20154102 1.33
0.52 0.21185884 0.54
0.52 0.21185884 0.74
0.52 0.21185884 0.94
0.52 0.21185884 1.14
0.52 0.21185884 1.34
0.7 0.25343631 0.5
0.7 0.25343631 0.7
0.7 0.25343631 0.9
0.7 0.25343631 1.1
0.7 0.25343631 1.3
0.705 0.21176357 0.51
0.705 0.21176357 0.71
0.705 0.21176357 0.91
0.705 0.21176357 1.11
0.705 0.21176357 1.31
0.71 0.23422195 0.52
0.71 0.23422195 0.72
0.71 0.23422195 0.92
0.71 0.23422195 1.12
0.71 0.23422195 1.32
0.715 0.20154102 0.53
0.715 0.20154102 0.73
0.715 0.20154102 0.93
0.715 0.20154102 1.13
0.715 0.20154102 1.33
0.72 0.21185884 0.54
0.72 0.21185884 0.74
0.72 0.21185884 0.94
0.72 0.21185884 1.14
0.72 0.21185884 1.34
0.9 0.25343631 0.5
0.9 0.25343631 0.7
0.9 0.25343631 0.9
0.9 0.25343631 1.1
0.9 0.25343631 1.3
0.905 0.21176357 0.51
0.905 0.21176357 0.71
0.905 0.21176357 0.91
0.905 0.21176357 1.11
0.905 0.21176357 1.31
0.91 0.23422195 0.52
0.91 0.23422195 0.72
0.91 0.23422195 0.92
0.91 0.23422195 1.12
0.91 0.23422195 1.32
0.915 0.20154102 0.53
0.915 0.20154102 0.73
0.915 0.20154102 0.93
0.915 0.20154102 1.13
0.915 0.20154102 1.33
0.92 0.21185884 0.54
0.92 0.21185884 0.74
0.92 0.21185884 0.94
0.92 0.21185884 1.14
0.92 0.21185884 1.34
1.1 0.25343631 0.5
1.1 0.25343631 0.7
1.1 0.25343631 0.9
1.1 0.25343631 1.1
1.1 0.25343631 1.3
1.105 0.21176357 0.51
1.105 0.21176357 0.71
1.105 0.21176357 0.91
1.105 0.21176357 1.11
1.105 0.21176357 1.31
1.11 0.23422195 0.52
1.11 0.23422195 0.72
1.11 0.23422195 0.92
1.11 0.23422195 1.12
1.11 0.23422195 1.32
1.115 0.20154102 0.53
1.115 0.20154102 0.73
1.115 0.20154102 0.93
1.115 0.20154102 1.13
1.115 0.20154102 1.33
1.12 0.21185884 0.54
1.12 0.21185884 0.74
1.12 0.21185884 0.94
1.12 0.21185884 1.14
1.12 0.21185884 1.34
1.3 0.25343631 0.5
1.3 0.25343631 0.7
1.3 0.25343631 0.9
1.3 0.25343631 1.1
1.3 0.25343631 1.3
1.305 0.21176357 0.51
1.305 0.21176357 0.71
1.305 0.21176357 0.91
1.305 0.21176357 1.11
1.305 0.21176357 1.31
1.31 0.23422195 0.52
1.31 0.23422195 0.72
1.31 0.23422195 0.92
1.31 0.23422195 1.12
1.31 0.23422195 1.32
1.315 0.20154102 0.53
1.315 0.20154102 0.73
1.315 0.20154102 0.93
1.315 0.20154102 1.13
1.315 0.20154102 1.33
1.32 0.21185884 0.54
1.32 0.21185884 0.74
1.32 0.21185884 0.94
1.32 0.21185884 1.14
1.32 0.21185884 1.34
CELLS 0 0
CELL_TYPES 0
POINT_DATA 125
SCALARS m double
LOOKUP_TABLE default
1
1
1
1
1
1
1
1
1
1
1
1
1
1
1
1
1
1
1
1
1
1
1
1
1
1
1
1
1
1
1
1
1
1
1
1
1
1
1
1
1
1
1
1
1
1
1
1
1
1
1
1
1
1
1
1
1
1
1
1
1
1
1
1
1
1
1
1
1
1
1
1
1
1
1
1
1
1
1
1
1
1
1
1
1
1
1
1
1
1
1
1
1
1
1
1
1
1
1
1
1
1
1
1
1
1
1
1
1
1
1
1
1
1
1
1
1
1
1
1
1
1
1
1
1
SCALARS r double
LOOKUP_TABLE default
0.1
0.1
0.1
0.1
0.1
0.1
0.1
0.1
0.1
0.1
0.1
0.1
0.1
0.1
0.1
0.1
0.1
0.1
0.1
0.1
0.1
0.1
0.1
0.1
0.1
0.1
0.1
0.1
0.1
0.1
0.1
0.1
0.1
0.1
0.1
0.1
0.1
0.1
0.1
0.1
0.1
0.1
0.1
0.1
0.1
0.1
0.1
0.1
0.1
0.1
0.1
0.1
0.1
0.1
0.1
0.1
0.1
0.1
0.1
0.1
0.1
0.1
0.1
0.1
0.1
0.1
0.1
0.1
0.1
0.1
0.1
0.1
0.1
0.1
0.1
0.1
0.1
0.1
0.1
0.1
0.1
0.1
0.1
0.1
0.1
0.1
0.1
0.1
0.1
0.1
0.1
0.1
0.1
0.1
0.1
0.1
0.1
0.1
0.1
0.1
0.1
0.1
0.1
0.1
0.1
0.1
0.1
0.1
0.1
0.1
0.1
0.1
0.1
0.1
0.1
0.1
0.1
0.1
0.1
0.1
0.1
0.1
0.1
0.1
0.1
VECTORS v double
1.4866059e-18 0.14276959 1.4866059e-18
1.4866059e-18 0.14276959 2.0812483e-18
1.4866059e-18 0.14276959 2.6758906e-18
1.4866059e-18 0.14276959 3.270533e-18
1.4866059e-18 0.14276959 3.8651753e-18
5.8569104e-19 -0.55395431 5.9148996e-19
5.8569104e-19 -0.55395431 8.2344681e-19
5.8569104e-19 -0.55395431 1.0554037e-18
5.8569104e-19 -0.55395431 1.2873605e-18
5.8569104e-19 -0.55395431 1.5193173e-18
1.3630733e-18 -0.23163746 1.3898003e-18
1.3630733e-18 -0.23163746 1.9243388e-18
1.3630733e-18 -0.23163746 2.4588774e-18
1.3630733e-18 -0.23163746 2.993416e-18
1.3630733e-18 -0.23163746 3.5279545e-18
-2.0629914e-19 0.36221759 -2.1230785e-19
-2.0629914e-19 0.36221759 -2.9242402e-19
-2.0629914e-19 0.36221759 -3.725402e-19
-2.0629914e-19 0.36221759 -4.5265637e-19
-2.0629914e-19 0.36221759 -5.3277254e-19
6.4912899e-20 0.27457766 6.7409549e-20
6.4912899e-20 0.27457766 9.2376049e-20
6.4912899e-20 0.27457766 1.1734255e-19
6.4912899e-20 0.27457766 1.4230905e-19
6.4912899e-20 0.27457766 1.6727555e-19
2.0812483e-18 0.14276959 1.4866059e-18
2.0812483e-18 0.14276959 2.0812483e-18
2.0812483e-18 0.14276959 2.6758906e-18
2.0812483e-18 0.14276959 3.270533e-18
2.0812483e-18 0.14276959 3.8651753e-18
8.1764789e-19 -0.55395431 5.9148996e-19
8.1764789e-19 -0.55395431 8.2344681e-19
8.1764789e-19 -0.55395431 1.0554037e-18
8.1764789e-19 -0.55395431 1.2873605e-18
8.1764789e-19 -0.55395431 1.5193173e-18
1.8976119e-18 -0.23163746 1.3898003e-18
1.8976119e-18 -0.23163746 1.9243388e-18
1.8976119e-18 -0.23163746 2.4588774e-18
1.8976119e-18 -0.23163746 2.993416e-18
1.8976119e-18 -0.23163746 3.5279545e-18
-2.8641531e-19 0.36221759 -2.1230785e-19
-2.8641531e-19 0.36221759 -2.9242402e-19
-2.8641531e-19 0.36221759 -3.725402e-19
-2.8641531e-19 0.36221759 -4.5265637e-19
-2.8641531e-19 0.36221759 -5.3277254e-19
8.9879399e-20 0.27457766 6.7409549e-20
8.9879399e-20 0.27457766 9.2376049e-20
8.9879399e-20 0.27457766 1.1734255e-19
8.9879399e-20 0.27457766 1.4230905e-19
8.9879399e-20 0.27457766 1.6727555e-19
2.6758906e-18 0.14276959 1.4866059e-18
2.6758906e-18 0.14276959 2.0812483e-18
2.6758906e-18 0.14276959 2.6758906e-18
2.6758906e-18 0.14276959 3.270533e-18
2.6758906e-18 0.14276959 3.8651753e-18
1.0496047e-18 -0.55395431 5.9148996e-19
1.0496047e-18 -0.55395431 8.2344681e-19
1.0496047e-18 -0.55395431 1.0554037e-18
1.0496047e-18 -0.55395431 1.2873605e-18
1.0496047e-18 -0.55395431 1.5193173e-18
2.4321505e-18 -0.23163746 1.3898003e-18
2.4321505e-18 -0.23163746 1.9243388e-18
2.4321505e-18 -0.23163746 2.4588774e-18
2.4321505e-18 -0.23163746 2.993416e-18
2.4321505e-18 -0.23163746 3.5279545e-18
-3.6653148e-19 0.36221759 -2.1230785e-19
-3.6653148e-19 0.36221759 -2.9242402e-19
-3.6653148e-19 0.36221759 -3.725402e-19
-3.6653148e-19 0.36221759 -4.5265637e-19
-3.6653148e-19 0.36221759 -5.3277254e-19
1.148459e-19 0.27457766 6.7409549e-20
1.148459e-19 0.27457766 9.2376049e-20
1.148459e-19 0.27457766 1.1734255e-19
1.148459e-19 0.27457766 1.4230905e-19
1.148459e-19 0.27457766 1.6727555e-19
3.270533e-18 0.14276959 1.4866059e-18
3.270533e-18 0.14276959 2.0812483e-18
3.270533e-18 0.14276959 2.6758906e-18
3.270533e-18 0.14276959 3.270533e-18
3.270533e-18 0.14276959 3.8651753e-18
1.2815616e-18 -0.55395431 5.9148996e-19
1.2815616e-18 -0.55395431 8.2344681e-19
1.2815616e-18 -0.55395431 1.0554037e-18
1.2815616e-18 -0.55395431 1.2873605e-18
1.2815616e-18 -0.55395431 1.5193173e-18
2.966689e-18 -0.23163746 1.3898003e-18
2.966689e-18 -0.23163746 1.9243388e-18
2.966689e-18 -0.23163746 2.4588774e-18
2.966689e-18 -0.23163746 2.993416e-18
2.966689e-18 -0.23163746 3.5279545e-18
-4.4664765e-19 0.36221759 -2.1230785e-19
-4.4664765e-19 0.36221759 -2.9242402e-19
-4.4664765e-19 0.36221759 -3.725402e-19
-4.4664765e-19 0.36221759 -4.5265637e-19
-4.4664765e-19 0.36221759 -5.3277254e-19
1.398124e-19 0.27457766 6.7409549e-20
1.398124e-19 0.27457766 9.2376049e-20
1.398124e-19 0.27457766 1.1734255e-19
1.398124e-19 0.27457766 1.4230905e-19
1.398124e-19 0.27457766 1.6727555e-19
3.8651753e-18 0.14276959 1.4866059e-18
3.8651753e-18 0.14276959 2.0812483e-18
3.8651753e-18 0.14276959 2.6758906e-18
3.8651753e-18 0.14276959 3.270533e-18
3.8651753e-18 0.14276959 3.8651753e-18
1.5135184e-18 -0.55395431 5.9148996e-19
1.5135184e-18 -0.55395431 8.2344681e-19
1.5135184e-18 -0.55395431 1.0554037e-18
1.5135184e-18 -0.55395431 1.2873605e-18
1.5135184e-18 -0.55395431 1.5193173e-18
3.5012276e-18 -0.23163746 1.3898003e-18
3.5012276e-18 -0.23163746 1.9243388e-18
3.5012276e-18 -0.23163746 2.4588774e-18
3.5012276e-18 -0.23163746 2.993416e-18
3.5012276e-18 -0.23163746 3.5279545e-18
-5.2676382e-19 0.36221759 -2.1230785e-19
-5.2676382e-19 0.36221759 -2.9242402e-19
-5.2676382e-19 0.36221759 -3.725402e-19
-5.2676382e-19 0.36221759 -4.5265637e-19
-5.2676382e-19 0.36221759 -5.3277254e-19
1.647789e-19 0.27457766 6.7409549e-20
1.647789e-19 0.27457766 9.2376049e-20
1.647789e-19 0.27457766 1.1734255e-19
1.647789e-19 0.27457766 1.4230905e-19
1.647789e-19 0.27457766 1.6727555e-19
VECTORS q double
1 -2.2444861e-12 3.0200982e-27
1 -2.2444861e-12 4.2281001e-27
1 -2.2444861e-12 5.4360576e-27
1 -2.2444861e-12 6.6441628e-27
1 -2.2444861e-12 7.8523997e-27
1 -6.429098e-13 3.6965962e-28
1 -6.429098e-13 5.1469939e-28
1 -6.429098e-13 6.5955963e-28
1 -6.429098e-13 8.0464833e-28
1 -6.429098e-13 9.4961365e-28
1 -1.9310627e-12 2.39408e-27
1 -1.9310627e-12 3.3148691e-27
1 -1.9310627e-12 4.2356496e-27
1 -1.9310627e-12 5.1565319e-27
1 -1.9310627e-12 6.0775855e-27
1 5.6148516e-13 1.1423226e-28
1 5.6148516e-13 1.5725524e-28
1 5.6148516e-13 2.0047034e-28
1 5.6148516e-13 2.4360642e-28
1 5.6148516e-13 2.8662922e-28
1 7.2773634e-14 -4.0787503e-30
1 7.2773634e-14 -5.6603899e-30
1 7.2773634e-14 -7.1199075e-30
1 7.2773634e-14 -8.6837874e-30
1 7.2773634e-14 -1.0216108e-29
1 -3.1422805e-12 4.228169e-27
1 -3.1422805e-12 5.9193945e-27
1 -3.1422805e-12 7.6110363e-27
1 -3.1422805e-12 9.3021918e-27
1 -3.1422805e-12 1.0993723e-26
1 -8.9752754e-13 5.1600905e-28
1 -8.9752754e-13 7.1848262e-28
1 -8.9752754e-13 9.2073452e-28
1 -8.9752754e-13 1.1232163e-27
1 -8.9752754e-13 1.3255856e-27
1 -2.6883423e-12 3.3331056e-27
1 -2.6883423e-12 4.6151245e-27
1 -2.6883423e-12 5.8970058e-27
1 -2.6883423e-12 7.1790476e-27
1 -2.6883423e-12 8.4611762e-27
1 7.7953765e-13 1.5868987e-28
1 7.7953765e-13 2.184636e-28
1 7.7953765e-13 2.7851234e-28
1 7.7953765e-13 3.3842753e-28
1 7.7953765e-13 3.9816529e-28
1 1.0076349e-13 -5.6663511e-30
1 1.0076349e-13 -7.8608245e-30
1 1.0076349e-13 -9.8780458e-30
1 1.0076349e-13 -1.2055574e-29
1 1.0076349e-13 -1.4189223e-29
1 -4.0400749e-12 5.4362943e-27
1 -4.0400749e-12 7.6102503e-27
1 -4.0400749e-12 9.7851108e-27
1 -4.0400749e-12 1.1959761e-26
1 -4.0400749e-12 1.4134556e-26
1 -1.1521453e-12 6.6244397e-28
1 -1.1521453e-12 9.2237258e-28
1 -1.1521453e-12 1.1819651e-27
1 -1.1521453e-12 1.4419536e-27
1 -1.1521453e-12 1.7017383e-27
1 -3.4456218e-12 4.2720681e-27
1 -3.4456218e-12 5.9152297e-27
1 -3.4456218e-12 7.5581997e-27
1 -3.4456218e-12 9.2015366e-27
1 -3.4456218e-12 1.0845002e-26
1 9.9759014e-13 2.0299181e-28
1 9.9759014e-13 2.7944821e-28
1 9.9759014e-13 3.5623987e-28
1 9.9759014e-13 4.3290042e-28
1 9.9759014e-13 5.0934483e-28
1 1.2875335e-13 -7.1978158e-30
1 1.2875335e-13 -9.9864725e-30
1 1.2875335e-13 -1.2559158e-29
1 1.2875335e-13 -1.5324754e-29
1 1.2875335e-13 -1.8027888e-29
1 -4.9378694e-12 6.6442618e-27
1 -4.9378694e-12 9.3016304e-27
1 -4.9378694e-12 1.1959424e-26
1 -4.9378694e-12 1.4617274e-26
1 -4.9378694e-12 1.7275396e-26
1 -1.406763e-12 8.0875265e-28
1 -1.406763e-12 1.1260866e-27
1 -1.406763e-12 1.4430181e-27
1 -1.406763e-12 1.7604171e-27
1 -1.406763e-12 2.0776015e-27
1 -4.2029013e-12 5.2113463e-27
1 -4.2029013e-12 7.2157517e-27
1 -4.2029013e-12 9.2199371e-27
1 -4.2029013e-12 1.1224358e-26
1 -4.2029013e-12 1.3229352e-26
1 1.2156426e-12 2.4746215e-28
1 1.2156426e-12 3.4066333e-28
1 1.2156426e-12 4.3429127e-28
1 1.2156426e-12 5.2772994e-28
1 1.2156426e-12 6.209158e-28
1 1.5674321e-13 -8.7837216e-30
1 1.5674321e-13 -1.218676e-29
1 1.5674321e-13 -1.5322838e-29
1 1.5674321e-13 -1.8697551e-29
1 1.5674321e-13 -2.1992947e-29
1 -5.8356638e-12 7.8521105e-27
1 -5.8356638e-12 1.0992544e-26
1 -5.8356638e-12 1.4133517e-26
1 -5.8356638e-12 1.7274545e-26
1 -5.8356638e-12 2.0415934e-26
1 -1.6613808e-12 9.5517174e-28
1 -1.6613808e-12 1.3299404e-27
1 -1.6613808e-12 1.7042614e-27
1 -1.6613808e-12 2.079144e-27
1 -1.6613808e-12 2.4537449e-27
1 -4.9601808e-12 6.1492967e-27
1 -4.9601808e-12 8.5144934e-27
1 -4.9601808e-12 1.0879393e-26
1 -4.9601808e-12 1.3245335e-26
1 -4.9601808e-12 1.5610509e-26
1 1.4336951e-12 2.9185241e-28
1 1.4336951e-12 4.0180792e-28
1 1.4336951e-12 5.1219736e-28
1 1.4336951e-12 6.2240553e-28
1 1.4336951e-12 7.3233409e-28
1 1.8473307e-13 -1.0293284e-29
1 1.8473307e-13 -1.4279773e-29
1 1.8473307e-13 -1.7960062e-29
1 1.8473307e-13 -2.1911413e-29
1 1.8473307e-13 -2.5778761e-29
