# vtk DataFile Version 4.0
hesp visualization file
ASCII
DATASET UNSTRUCTURED_GRID
POINTS 125 double
0.5 0.41898614 0.5
0.5 0.41898614 0.7
0.5 0.41898614 0.9
0.5 0.41898614 1.1
0.5 0.41898614 1.3
0.505 0.23787188 0.51
0.505 0.23787188 0.71
0.505 0.23787188 0.91
0.505 0.23787188 1.11
0.505 0.23787188 1.31
0.51 0.21470849 0.52
0.51 0.21470849 0.72
0.51 0.21470849 0.92
0.51 0.21470849 1.12
0.51 0.21470849 1.32
0.515 0.27531019 0.53
0.515 0.27531019 0.73
0.515 0.27531019 0.93
0.515 0.27531019 1.13
0.515 0.27531019 1.33
0.52 0.21021508 0.54
0.52 0.21021508 0.74
0.52 0.21021508 0.94
0.52 0.21021508 1.14
0.52 0.21021508 1.34
0.7 0.41898614 0.5
0.7 0.41898614 0.7
0.7 0.41898614 0.9
0.7 0.41898614 1.1
0.7 0.41898614 1.3
0.705 0.23787188 0.51
0.705 0.23787188 0.71
0.705 0.23787188 0.91
0.705 0.23787188 1.11
0.705 0.23787188 1.31
0.71 0.21470849 0.52
0.71 0.21470849 0.72
0.71 0.21470849 0.92
0.71 0.21470849 1.12
0.71 0.21470849 1.32
0.715 0.27531019 0.53
0.715 0.27531019 0.73
0.715 0.27531019 0.93
0.715 0.27531019 1.13
0.715 0.27531019 1.33
0.72 0.21021508 0.54
0.72 0.21021508 0.74
0.72 0.21021508 0.94
0.72 0.21021508 1.14
0.72 0.21021508 1.34
0.9 0.41898614 0.5
0.9 0.41898614 0.7
0.9 0.41898614 0.9
0.9 0.41898614 1.1
0.9 0.41898614 1.3
0.905 0.23787188 0.51
0.905 0.23787188 0.71
0.905 0.23787188 0.91
0.905 0.23787188 1.11
0.905 0.23787188 1.31
0.91 0.21470849 0.52
0.91 0.21470849 0.72
0.91 0.21470849 0.92
0.91 0.21470849 1.12
0.91 0.21470849 1.32
0.915 0.27531019 0.53
0.915 0.27531019 0.73
0.915 0.27531019 0.93
0.915 0.27531019 1.13
0.915 0.27531019 1.33
0.92 0.21021508 0.54
0.92 0.21021508 0.74
0.92 0.21021508 0.94
0.92 0.21021508 1.14
0.92 0.21021508 1.34
1.1 0.41898614 0.5
1.1 0.41898614 0.7
1.1 0.41898614 0.9
1.1 0.41898614 1.1
1.1 0.41898614 1.3
1.105 0.23787188 0.51
1.105 0.23787188 0.71
1.105 0.23787188 0.91
1.105 0.23787188 1.11
1.105 0.23787188 1.31
1.11 0.21470849 0.52
1.11 0.21470849 0.72
1.11 0.21470849 0.92
1.11 0.21470849 1.12
1.11 0.21470849 1.32
1.115 0.27531019 0.53
1.115 0.27531019 0.73
1.115 0.27531019 0.93
1.115 0.27531019 1.13
1.115 0.27531019 1.33
1.12 0.21021508 0.54
1.12 0.21021508 0.74
1.12 0.21021508 0.94
1.12 0.21021508 1.14
1.12 0.21021508 1.34
1.3 0.41898614 0.5
1.3 0.41898614 0.7
1.3 0.41898614 0.9
1.3 0.41898614 1.1
1.3 0.41898614 1.3
1.305 0.23787188 0.51
1.305 0.23787188 0.71
1.305 0.23787188 0.91
1.305 0.23787188 1.11
1.305 0.23787188 1.31
1.31 0.21470849 0.52
1.31 0.21470849 0.72
1.31 0.21470849 0.92
1.31 0.21470849 1.12
1.31 0.21470849 1.32
1.315 0.27531019 0.53
1.315 0.27531019 0.73
1.315 0.27531019 0.93
1.315 0.27531019 1.13
1.315 0.27531019 1.33
1.32 0.21021508 0.54
1.32 0.21021508 0.74
1.32 0.21021508 0.94
1.32 0.21021508 1.14
1.32 0.21021508 1.34
CELLS 0 0
CELL_TYPES 0
POINT_DATA 125
SCALARS m double
LOOKUP_TABLE default
1
1
1
1
1
1
1
1
1
1
1
1
1
1
1
1
1
1
1
1
1
1
1
1
1
1
1
1
1
1
1
1
1
1
1
1
1
1
1
1
1
1
1
1
1
1
1
1
1
1
1
1
1
1
1
1
1
1
1
1
1
1
1
1
1
1
1
1
1
1
1
1
1
1
1
1
1
1
1
1
1
1
1
1
1
1
1
1
1
1
1
1
1
1
1
1
1
1
1
1
1
1
1
1
1
1
1
1
1
1
1
1
1
1
1
1
1
1
1
1
1
1
1
1
1
SCALARS r double
LOOKUP_TABLE default
0.1
0.1
0.1
0.1
0.1
0.1
0.1
0.1
0.1
0.1
0.1
0.1
0.1
0.1
0.1
0.1
0.1
0.1
0.1
0.1
0.1
0.1
0.1
0.1
0.1
0.1
0.1
0.1
0.1
0.1
0.1
0.1
0.1
0.1
0.1
0.1
0.1
0.1
0.1
0.1
0.1
0.1
0.1
0.1
0.1
0.1
0.1
0.1
0.1
0.1
0.1
0.1
0.1
0.1
0.1
0.1
0.1
0.1
0.1
0.1
0.1
0.1
0.1
0.1
0.1
0.1
0.1
0.1
0.1
0.1
0.1
0.1
0.1
0.1
0.1
0.1
0.1
0.1
0.1
0.1
0.1
0.1
0.1
0.1
0.1
0.1
0.1
0.1
0.1
0.1
0.1
0.1
0.1
0.1
0.1
0.1
0.1
0.1
0.1
0.1
0.1
0.1
0.1
0.1
0.1
0.1
0.1
0.1
0.1
0.1
0.1
0.1
0.1
0.1
0.1
0.1
0.1
0.1
0.1
0.1
0.1
0.1
0.1
0.1
0.1
VECTORS v double
1.1197909e-19 -0.016394454 1.1197909e-19
1.1197909e-19 -0.016394454 1.5677072e-19
1.1197909e-19 -0.016394454 2.0156236e-19
1.1197909e-19 -0.016394454 2.46354e-19
1.1197909e-19 -0.016394454 2.9114563e-19
0 -0.042322411 0
0 -0.042322411 0
0 -0.042322411 0
0 -0.042322411 0
0 -0.042322411 0
8.9397038e-20 0.038043684 9.1149921e-20
8.9397038e-20 0.038043684 1.2620758e-19
8.9397038e-20 0.038043684 1.6126525e-19
8.9397038e-20 0.038043684 1.9632291e-19
8.9397038e-20 0.038043684 2.3138057e-19
-5.3600797e-20 0.39070903 -5.5161986e-20
-5.3600797e-20 0.39070903 -7.5977829e-20
-5.3600797e-20 0.39070903 -9.6793673e-20
-5.3600797e-20 0.39070903 -1.1760952e-19
-5.3600797e-20 0.39070903 -1.3842536e-19
-1.1704262e-20 -0.16297972 -1.2154426e-20
-1.1704262e-20 -0.16297972 -1.6656066e-20
-1.1704262e-20 -0.16297972 -2.1157705e-20
-1.1704262e-20 -0.16297972 -2.5659345e-20
-1.1704262e-20 -0.16297972 -3.0160984e-20
1.5677072e-19 -0.016394454 1.1197909e-19
1.5677072e-19 -0.016394454 1.5677072e-19
1.5677072e-19 -0.016394454 2.0156236e-19
1.5677072e-19 -0.016394454 2.46354e-19
1.5677072e-19 -0.016394454 2.9114563e-19
0 -0.042322411 0
0 -0.042322411 0
0 -0.042322411 0
0 -0.042322411 0
0 -0.042322411 0
1.244547e-19 0.038043684 9.1149921e-20
1.244547e-19 0.038043684 1.2620758e-19
1.244547e-19 0.038043684 1.6126525e-19
1.244547e-19 0.038043684 1.9632291e-19
1.244547e-19 0.038043684 2.3138057e-19
-7.4416641e-20 0.39070903 -5.5161986e-20
-7.4416641e-20 0.39070903 -7.5977829e-20
-7.4416641e-20 0.39070903 -9.6793673e-20
-7.4416641e-20 0.39070903 -1.1760952e-19
-7.4416641e-20 0.39070903 -1.3842536e-19
-1.6205902e-20 -0.16297972 -1.2154426e-20
-1.6205902e-20 -0.16297972 -1.6656066e-20
-1.6205902e-20 -0.16297972 -2.1157705e-20
-1.6205902e-20 -0.16297972 -2.5659345e-20
-1.6205902e-20 -0.16297972 -3.0160984e-20
2.0156236e-19 -0.016394454 1.1197909e-19
2.0156236e-19 -0.016394454 1.5677072e-19
2.0156236e-19 -0.016394454 2.0156236e-19
2.0156236e-19 -0.016394454 2.46354e-19
2.0156236e-19 -0.016394454 2.9114563e-19
0 -0.042322411 0
0 -0.042322411 0
0 -0.042322411 0
0 -0.042322411 0
0 -0.042322411 0
1.5951236e-19 0.038043684 9.1149921e-20
1.5951236e-19 0.038043684 1.2620758e-19
1.5951236e-19 0.038043684 1.6126525e-19
1.5951236e-19 0.038043684 1.9632291e-19
1.5951236e-19 0.038043684 2.3138057e-19
-9.5232485e-20 0.39070903 -5.5161986e-20
-9.5232485e-20 0.39070903 -7.5977829e-20
-9.5232485e-20 0.39070903 -9.6793673e-20
-9.5232485e-20 0.39070903 -1.1760952e-19
-9.5232485e-20 0.39070903 -1.3842536e-19
-2.0707541e-20 -0.16297972 -1.2154426e-20
-2.0707541e-20 -0.16297972 -1.6656066e-20
-2.0707541e-20 -0.16297972 -2.1157705e-20
-2.0707541e-20 -0.16297972 -2.5659345e-20
-2.0707541e-20 -0.16297972 -3.0160984e-20
2.46354e-19 -0.016394454 1.1197909e-19
2.46354e-19 -0.016394454 1.5677072e-19
2.46354e-19 -0.016394454 2.0156236e-19
2.46354e-19 -0.016394454 2.46354e-19
2.46354e-19 -0.016394454 2.9114563e-19
0 -0.042322411 0
0 -0.042322411 0
0 -0.042322411 0
0 -0.042322411 0
0 -0.042322411 0
1.9457002e-19 0.038043684 9.1149921e-20
1.9457002e-19 0.038043684 1.2620758e-19
1.9457002e-19 0.038043684 1.6126525e-19
1.9457002e-19 0.038043684 1.9632291e-19
1.9457002e-19 0.038043684 2.3138057e-19
-1.1604833e-19 0.39070903 -5.5161986e-20
-1.1604833e-19 0.39070903 -7.5977829e-20
-1.1604833e-19 0.39070903 -9.6793673e-20
-1.1604833e-19 0.39070903 -1.1760952e-19
-1.1604833e-19 0.39070903 -1.3842536e-19
-2.5209181e-20 -0.16297972 -1.2154426e-20
-2.5209181e-20 -0.16297972 -1.6656066e-20
-2.5209181e-20 -0.16297972 -2.1157705e-20
-2.5209181e-20 -0.16297972 -2.5659345e-20
-2.5209181e-20 -0.16297972 -3.0160984e-20
2.9114563e-19 -0.016394454 1.1197909e-19
2.9114563e-19 -0.016394454 1.5677072e-19
2.9114563e-19 -0.016394454 2.0156236e-19
2.9114563e-19 -0.016394454 2.46354e-19
2.9114563e-19 -0.016394454 2.9114563e-19
0 -0.042322411 0
0 -0.042322411 0
0 -0.042322411 0
0 -0.042322411 0
0 -0.042322411 0
2.2962769e-19 0.038043684 9.1149921e-20
2.2962769e-19 0.038043684 1.2620758e-19
2.2962769e-19 0.038043684 1.6126525e-19
2.2962769e-19 0.038043684 1.9632291e-19
2.2962769e-19 0.038043684 2.3138057e-19
-1.3686417e-19 0.39070903 -5.5161986e-20
-1.3686417e-19 0.39070903 -7.5977829e-20
-1.3686417e-19 0.39070903 -9.6793673e-20
-1.3686417e-19 0.39070903 -1.1760952e-19
-1.3686417e-19 0.39070903 -1.3842536e-19
-2.971082e-20 -0.16297972 -1.2154426e-20
-2.971082e-20 -0.16297972 -1.6656066e-20
-2.971082e-20 -0.16297972 -2.1157705e-20
-2.971082e-20 -0.16297972 -2.5659345e-20
-2.971082e-20 -0.16297972 -3.0160984e-20
VECTORS q double
1 -1.8728138e-14 1.5140828e-30
1 -1.8728138e-14 2.1190915e-30
1 -1.8728138e-14 2.7240632e-30
1 -1.8728138e-14 3.3304264e-30
1 -1.8728138e-14 3.9343964e-30
1 0 0
1 0 0
1 0 0
1 0 0
1 0 0
1 -2.1764307e-14 1.7468985e-30
1 -2.1764307e-14 2.4194042e-30
1 -2.1764307e-14 3.0892394e-30
1 -2.1764307e-14 3.7632945e-30
1 -2.1764307e-14 4.4368534e-30
1 2.3827855e-14 1.3893705e-30
1 2.3827855e-14 1.9115663e-30
1 2.3827855e-14 2.4384943e-30
1 2.3827855e-14 2.9624242e-30
1 2.3827855e-14 3.4836407e-30
1 4.1274313e-15 7.5001033e-32
1 4.1274313e-15 1.0240775e-31
1 4.1274313e-15 1.3013344e-31
1 4.1274313e-15 1.5790789e-31
1 4.1274313e-15 1.8522842e-31
1 -2.6219393e-14 2.1205609e-30
1 -2.6219393e-14 2.9681396e-30
1 -2.6219393e-14 3.8139261e-30
1 -2.6219393e-14 4.6635086e-30
1 -2.6219393e-14 5.509419e-30
1 0 0
1 0 0
1 0 0
1 0 0
1 0 0
1 -3.029933e-14 2.4301663e-30
1 -3.029933e-14 3.3658227e-30
1 -3.029933e-14 4.2980479e-30
1 -3.029933e-14 5.2366532e-30
1 -3.029933e-14 6.1726992e-30
1 3.3081391e-14 1.9290714e-30
1 3.3081391e-14 2.6542192e-30
1 3.3081391e-14 3.3853945e-30
1 3.3081391e-14 4.1139115e-30
1 3.3081391e-14 4.8380026e-30
1 5.7149048e-15 1.0384593e-31
1 5.7149048e-15 1.4178404e-31
1 5.7149048e-15 1.8036259e-31
1 5.7149048e-15 2.187955e-31
1 5.7149048e-15 2.5661241e-31
1 -3.3710648e-14 2.7265406e-30
1 -3.3710648e-14 3.8161686e-30
1 -3.3710648e-14 4.9058847e-30
1 -3.3710648e-14 5.997464e-30
1 -3.3710648e-14 7.0840929e-30
1 0 0
1 0 0
1 0 0
1 0 0
1 0 0
1 -3.8834352e-14 3.1195088e-30
1 -3.8834352e-14 4.3207126e-30
1 -3.8834352e-14 5.5162737e-30
1 -3.8834352e-14 6.7219259e-30
1 -3.8834352e-14 7.9240719e-30
1 4.2334927e-14 2.467778e-30
1 4.2334927e-14 3.3955481e-30
1 4.2334927e-14 4.3309445e-30
1 4.2334927e-14 5.263639e-30
1 4.2334927e-14 6.1890222e-30
1 7.3023784e-15 1.3267269e-31
1 7.3023784e-15 1.811391e-31
1 7.3023784e-15 2.302892e-31
1 7.3023784e-15 2.7927922e-31
1 7.3023784e-15 3.2773031e-31
1 -4.1201904e-14 3.3312349e-30
1 -4.1201904e-14 4.6632308e-30
1 -4.1201904e-14 5.9939572e-30
1 -4.1201904e-14 7.3288849e-30
1 -4.1201904e-14 8.6550617e-30
1 0 0
1 0 0
1 0 0
1 0 0
1 0 0
1 -4.7369375e-14 3.8030252e-30
1 -4.7369375e-14 5.2677515e-30
1 -4.7369375e-14 6.7264267e-30
1 -4.7369375e-14 8.1941635e-30
1 -4.7369375e-14 9.6616476e-30
1 5.1588463e-14 3.0086253e-30
1 5.1588463e-14 4.1391568e-30
1 5.1588463e-14 5.2801818e-30
1 5.1588463e-14 6.415721e-30
1 5.1588463e-14 7.5444027e-30
1 8.8898519e-15 1.6157074e-31
1 8.8898519e-15 2.2045679e-31
1 8.8898519e-15 2.8051886e-31
1 8.8898519e-15 3.4022545e-31
1 8.8898519e-15 3.9916237e-31
1 -4.8693159e-14 3.9386302e-30
1 -4.8693159e-14 5.5131718e-30
1 -4.8693159e-14 7.0855402e-30
1 -4.8693159e-14 8.6648163e-30
1 -4.8693159e-14 1.0237961e-29
1 0 0
1 0 0
1 0 0
1 0 0
1 0 0
1 -5.5904397e-14 4.4885372e-30
1 -5.5904397e-14 6.21848e-30
1 -5.5904397e-14 7.9389809e-30
1 -5.5904397e-14 9.6717884e-30
1 -5.5904397e-14 1.1403273e-29
1 6.0841999e-14 3.5466925e-30
1 6.0841999e-14 4.8811943e-30
1 6.0841999e-14 6.2250394e-30
1 6.0841999e-14 7.564364e-30
1 6.0841999e-14 8.8954898e-30
1 1.0477326e-14 1.9056697e-31
1 1.0477326e-14 2.6018042e-31
1 1.0477326e-14 3.3062574e-31
1 1.0477326e-14 4.0131203e-31
1 1.0477326e-14 4.7061904e-31
