# vtk DataFile Version 4.0
hesp visualization file
ASCII
DATASET UNSTRUCTURED_GRID
POINTS 125 double
0.5 0.36254662 0.5
0.5 0.36254662 0.7
0.5 0.36254662 0.9
0.5 0.36254662 1.1
0.5 0.36254662 1.3
0.505 0.299728 0.51
0.505 0.299728 0.71
0.505 0.299728 0.91
0.505 0.299728 1.11
0.505 0.299728 1.31
0.51 0.21155712 0.52
0.51 0.21155712 0.72
0.51 0.21155712 0.92
0.51 0.21155712 1.12
0.51 0.21155712 1.32
0.515 0.36899902 0.53
0.515 0.36899902 0.73
0.515 0.36899902 0.93
0.515 0.36899902 1.13
0.515 0.36899902 1.33
0.52 0.38900093 0.54
0.52 0.38900093 0.74
0.52 0.38900093 0.94
0.52 0.38900093 1.14
0.52 0.38900093 1.34
0.7 0.36254662 0.5
0.7 0.36254662 0.7
0.7 0.36254662 0.9
0.7 0.36254662 1.1
0.7 0.36254662 1.3
0.705 0.299728 0.51
0.705 0.299728 0.71
0.705 0.299728 0.91
0.705 0.299728 1.11
0.705 0.299728 1.31
0.71 0.21155712 0.52
0.71 0.21155712 0.72
0.71 0.21155712 0.92
0.71 0.21155712 1.12
0.71 0.21155712 1.32
0.715 0.36899902 0.53
0.715 0.36899902 0.73
0.715 0.36899902 0.93
0.715 0.36899902 1.13
0.715 0.36899902 1.33
0.72 0.38900093 0.54
0.72 0.38900093 0.74
0.72 0.38900093 0.94
0.72 0.38900093 1.14
0.72 0.38900093 1.34
0.9 0.36254662 0.5
0.9 0.36254662 0.7
0.9 0.36254662 0.9
0.9 0.36254662 1.1
0.9 0.36254662 1.3
0.905 0.299728 0.51
0.905 0.299728 0.71
0.905 0.299728 0.91
0.905 0.299728 1.11
0.905 0.299728 1.31
0.91 0.21155712 0.52
0.91 0.21155712 0.72
0.91 0.21155712 0.92
0.91 0.21155712 1.12
0.91 0.21155712 1.32
0.915 0.36899902 0.53
0.915 0.36899902 0.73
0.915 0.36899902 0.93
0.915 0.36899902 1.13
0.915 0.36899902 1.33
0.92 0.38900093 0.54
0.92 0.38900093 0.74
0.92 0.38900093 0.94
0.92 0.38900093 1.14
0.92 0.38900093 1.34
1.1 0.36254662 0.5
1.1 0.36254662 0.7
1.1 0.36254662 0.9
1.1 0.36254662 1.1
1.1 0.36254662 1.3
1.105 0.299728 0.51
1.105 0.299728 0.71
1.105 0.299728 0.91
1.105 0.299728 1.11
1.105 0.299728 1.31
1.11 0.21155712 0.52
1.11 0.21155712 0.72
1.11 0.21155712 0.92
1.11 0.21155712 1.12
1.11 0.21155712 1.32
1.115 0.36899902 0.53
1.115 0.36899902 0.73
1.115 0.36899902 0.93
1.115 0.36899902 1.13
1.115 0.36899902 1.33
1.12 0.38900093 0.54
1.12 0.38900093 0.74
1.12 0.38900093 0.94
1.12 0.38900093 1.14
1.12 0.38900093 1.34
1.3 0.36254662 0.5
1.3 0.36254662 0.7
1.3 0.36254662 0.9
1.3 0.36254662 1.1
1.3 0.36254662 1.3
1.305 0.299728 0.51
1.305 0.299728 0.71
1.305 0.299728 0.91
1.305 0.299728 1.11
1.305 0.299728 1.31
1.31 0.21155712 0.52
1.31 0.21155712 0.72
1.31 0.21155712 0.92
1.31 0.21155712 1.12
1.31 0.21155712 1.32
1.315 0.36899902 0.53
1.315 0.36899902 0.73
1.315 0.36899902 0.93
1.315 0.36899902 1.13
1.315 0.36899902 1.33
1.32 0.38900093 0.54
1.32 0.38900093 0.74
1.32 0.38900093 0.94
1.32 0.38900093 1.14
1.32 0.38900093 1.34
CELLS 0 0
CELL_TYPES 0
POINT_DATA 125
SCALARS m double
LOOKUP_TABLE default
1
1
1
1
1
1
1
1
1
1
1
1
1
1
1
1
1
1
1
1
1
1
1
1
1
1
1
1
1
1
1
1
1
1
1
1
1
1
1
1
1
1
1
1
1
1
1
1
1
1
1
1
1
1
1
1
1
1
1
1
1
1
1
1
1
1
1
1
1
1
1
1
1
1
1
1
1
1
1
1
1
1
1
1
1
1
1
1
1
1
1
1
1
1
1
1
1
1
1
1
1
1
1
1
1
1
1
1
1
1
1
1
1
1
1
1
1
1
1
1
1
1
1
1
1
SCALARS r double
LOOKUP_TABLE default
0.1
0.1
0.1
0.1
0.1
0.1
0.1
0.1
0.1
0.1
0.1
0.1
0.1
0.1
0.1
0.1
0.1
0.1
0.1
0.1
0.1
0.1
0.1
0.1
0.1
0.1
0.1
0.1
0.1
0.1
0.1
0.1
0.1
0.1
0.1
0.1
0.1
0.1
0.1
0.1
0.1
0.1
0.1
0.1
0.1
0.1
0.1
0.1
0.1
0.1
0.1
0.1
0.1
0.1
0.1
0.1
0.1
0.1
0.1
0.1
0.1
0.1
0.1
0.1
0.1
0.1
0.1
0.1
0.1
0.1
0.1
0.1
0.1
0.1
0.1
0.1
0.1
0.1
0.1
0.1
0.1
0.1
0.1
0.1
0.1
0.1
0.1
0.1
0.1
0.1
0.1
0.1
0.1
0.1
0.1
0.1
0.1
0.1
0.1
0.1
0.1
0.1
0.1
0.1
0.1
0.1
0.1
0.1
0.1
0.1
0.1
0.1
0.1
0.1
0.1
0.1
0.1
0.1
0.1
0.1
0.1
0.1
0.1
0.1
0.1
VECTORS v double
4.9689238e-20 0.33157726 4.9689238e-20
4.9689238e-20 0.33157726 6.9564934e-20
4.9689238e-20 0.33157726 8.9440629e-20
4.9689238e-20 0.33157726 1.0931632e-19
4.9689238e-20 0.33157726 1.2919202e-19
0 -0.26596186 0
0 -0.26596186 0
0 -0.26596186 0
0 -0.26596186 0
0 -0.26596186 0
3.1435558e-20 0.016444425 3.2051941e-20
3.1435558e-20 0.016444425 4.4379611e-20
3.1435558e-20 0.016444425 5.670728e-20
3.1435558e-20 0.016444425 6.903495e-20
3.1435558e-20 0.016444425 8.136262e-20
-2.1590944e-20 -0.16692796 -2.2219806e-20
-2.1590944e-20 -0.16692796 -3.0604638e-20
-2.1590944e-20 -0.16692796 -3.8989471e-20
-2.1590944e-20 -0.16692796 -4.7374303e-20
-2.1590944e-20 -0.16692796 -5.5759136e-20
0 -0.046938919 0
0 -0.046938919 0
0 -0.046938919 0
0 -0.046938919 0
0 -0.046938919 0
6.9564934e-20 0.33157726 4.9689238e-20
6.9564934e-20 0.33157726 6.9564934e-20
6.9564934e-20 0.33157726 8.9440629e-20
6.9564934e-20 0.33157726 1.0931632e-19
6.9564934e-20 0.33157726 1.2919202e-19
0 -0.26596186 0
0 -0.26596186 0
0 -0.26596186 0
0 -0.26596186 0
0 -0.26596186 0
4.3763227e-20 0.016444425 3.2051941e-20
4.3763227e-20 0.016444425 4.4379611e-20
4.3763227e-20 0.016444425 5.670728e-20
4.3763227e-20 0.016444425 6.903495e-20
4.3763227e-20 0.016444425 8.136262e-20
-2.9975776e-20 -0.16692796 -2.2219806e-20
-2.9975776e-20 -0.16692796 -3.0604638e-20
-2.9975776e-20 -0.16692796 -3.8989471e-20
-2.9975776e-20 -0.16692796 -4.7374303e-20
-2.9975776e-20 -0.16692796 -5.5759136e-20
0 -0.046938919 0
0 -0.046938919 0
0 -0.046938919 0
0 -0.046938919 0
0 -0.046938919 0
8.9440629e-20 0.33157726 4.9689238e-20
8.9440629e-20 0.33157726 6.9564934e-20
8.9440629e-20 0.33157726 8.9440629e-20
8.9440629e-20 0.33157726 1.0931632e-19
8.9440629e-20 0.33157726 1.2919202e-19
0 -0.26596186 0
0 -0.26596186 0
0 -0.26596186 0
0 -0.26596186 0
0 -0.26596186 0
5.6090897e-20 0.016444425 3.2051941e-20
5.6090897e-20 0.016444425 4.4379611e-20
5.6090897e-20 0.016444425 5.670728e-20
5.6090897e-20 0.016444425 6.903495e-20
5.6090897e-20 0.016444425 8.136262e-20
-3.8360608e-20 -0.16692796 -2.2219806e-20
-3.8360608e-20 -0.16692796 -3.0604638e-20
-3.8360608e-20 -0.16692796 -3.8989471e-20
-3.8360608e-20 -0.16692796 -4.7374303e-20
-3.8360608e-20 -0.16692796 -5.5759136e-20
0 -0.046938919 0
0 -0.046938919 0
0 -0.046938919 0
0 -0.046938919 0
0 -0.046938919 0
1.0931632e-19 0.33157726 4.9689238e-20
1.0931632e-19 0.33157726 6.9564934e-20
1.0931632e-19 0.33157726 8.9440629e-20
1.0931632e-19 0.33157726 1.0931632e-19
1.0931632e-19 0.33157726 1.2919202e-19
0 -0.26596186 0
0 -0.26596186 0
0 -0.26596186 0
0 -0.26596186 0
0 -0.26596186 0
6.8418566e-20 0.016444425 3.2051941e-20
6.8418566e-20 0.016444425 4.4379611e-20
6.8418566e-20 0.016444425 5.670728e-20
6.8418566e-20 0.016444425 6.903495e-20
6.8418566e-20 0.016444425 8.136262e-20
-4.6745441e-20 -0.16692796 -2.2219806e-20
-4.6745441e-20 -0.16692796 -3.0604638e-20
-4.6745441e-20 -0.16692796 -3.8989471e-20
-4.6745441e-20 -0.16692796 -4.7374303e-20
-4.6745441e-20 -0.16692796 -5.5759136e-20
0 -0.046938919 0
0 -0.046938919 0
0 -0.046938919 0
0 -0.046938919 0
0 -0.046938919 0
1.2919202e-19 0.33157726 4.9689238e-20
1.2919202e-19 0.33157726 6.9564934e-20
1.2919202e-19 0.33157726 8.9440629e-20
1.2919202e-19 0.33157726 1.0931632e-19
1.2919202e-19 0.33157726 1.2919202e-19
0 -0.26596186 0
0 -0.26596186 0
0 -0.26596186 0
0 -0.26596186 0
0 -0.26596186 0
8.0746236e-20 0.016444425 3.2051941e-20
8.0746236e-20 0.016444425 4.4379611e-20
8.0746236e-20 0.016444425 5.670728e-20
8.0746236e-20 0.016444425 6.903495e-20
8.0746236e-20 0.016444425 8.136262e-20
-5.5130273e-20 -0.16692796 -2.2219806e-20
-5.5130273e-20 -0.16692796 -3.0604638e-20
-5.5130273e-20 -0.16692796 -3.8989471e-20
-5.5130273e-20 -0.16692796 -4.7374303e-20
-5.5130273e-20 -0.16692796 -5.5759136e-20
0 -0.046938919 0
0 -0.046938919 0
0 -0.046938919 0
0 -0.046938919 0
0 -0.046938919 0
VECTORS q double
1 -2.5019446e-15 5.1187627e-32
1 -2.5019446e-15 7.1584149e-32
1 -2.5019446e-15 9.163713e-32
1 -2.5019446e-15 1.1258206e-31
1 -2.5019446e-15 1.3224312e-31
1 0 0
1 0 0
1 0 0
1 0 0
1 0 0
1 -3.5933634e-15 1.0386946e-31
1 -3.5933634e-15 1.4388064e-31
1 -3.5933634e-15 1.8347297e-31
1 -3.5933634e-15 2.23775e-31
1 -3.5933634e-15 2.6394026e-31
1 8.3955296e-15 2.9208498e-31
1 8.3955296e-15 4.0198419e-31
1 8.3955296e-15 5.1270162e-31
1 8.3955296e-15 6.2273216e-31
1 8.3955296e-15 7.3234928e-31
1 3.2878145e-16 1.6625741e-33
1 3.2878145e-16 2.2783423e-33
1 3.2878145e-16 2.8941105e-33
1 3.2878145e-16 3.5098786e-33
1 3.2878145e-16 4.1256468e-33
1 -3.5027224e-15 7.1862493e-32
1 -3.5027224e-15 1.0055408e-31
1 -3.5027224e-15 1.2823146e-31
1 -3.5027224e-15 1.5767107e-31
1 -3.5027224e-15 1.8528052e-31
1 0 0
1 0 0
1 0 0
1 0 0
1 0 0
1 -5.0025256e-15 1.4464423e-31
1 -5.0025256e-15 2.0032058e-31
1 -5.0025256e-15 2.555089e-31
1 -5.0025256e-15 3.1195263e-31
1 -5.0025256e-15 3.6768319e-31
1 1.1655929e-14 4.0551303e-31
1 1.1655929e-14 5.5812105e-31
1 1.1655929e-14 7.1174465e-31
1 1.1655929e-14 8.6478235e-31
1 1.1655929e-14 1.0171148e-30
1 4.5523585e-16 2.3020257e-33
1 4.5523585e-16 3.1546278e-33
1 4.5523585e-16 4.0072299e-33
1 4.5523585e-16 4.859832e-33
1 4.5523585e-16 5.7124341e-33
1 -4.5035003e-15 9.2530136e-32
1 -4.5035003e-15 1.2952521e-31
1 -4.5035003e-15 1.6580561e-31
1 -4.5035003e-15 2.036436e-31
1 -4.5035003e-15 2.3906182e-31
1 0 0
1 0 0
1 0 0
1 0 0
1 0 0
1 -6.4116877e-15 1.8596675e-31
1 -6.4116877e-15 2.5757769e-31
1 -6.4116877e-15 3.2837066e-31
1 -6.4116877e-15 4.0094724e-31
1 -6.4116877e-15 4.7279507e-31
1 1.4916329e-14 5.1876252e-31
1 1.4916329e-14 7.1400746e-31
1 1.4916329e-14 9.1055962e-31
1 1.4916329e-14 1.1065196e-30
1 1.4916329e-14 1.3011025e-30
1 5.8169025e-16 2.9414772e-33
1 5.8169025e-16 4.0309133e-33
1 5.8169025e-16 5.1203493e-33
1 5.8169025e-16 6.2097853e-33
1 5.8169025e-16 7.2992213e-33
1 -5.5042781e-15 1.1249241e-31
1 -5.5042781e-15 1.5745465e-31
1 -5.5042781e-15 2.0165388e-31
1 -5.5042781e-15 2.4792878e-31
1 -5.5042781e-15 2.9060253e-31
1 0 0
1 0 0
1 0 0
1 0 0
1 0 0
1 -7.8208498e-15 2.262974e-31
1 -7.8208498e-15 3.1348925e-31
1 -7.8208498e-15 3.9995053e-31
1 -7.8208498e-15 4.8789805e-31
1 -7.8208498e-15 5.7570158e-31
1 1.8176729e-14 6.3248009e-31
1 1.8176729e-14 8.7042495e-31
1 1.8176729e-14 1.1102499e-30
1 1.8176729e-14 1.3488023e-30
1 1.8176729e-14 1.5861821e-30
1 7.0814465e-16 3.5809288e-33
1 7.0814465e-16 4.9071987e-33
1 7.0814465e-16 6.2334687e-33
1 7.0814465e-16 7.5597386e-33
1 7.0814465e-16 8.8860085e-33
1 -6.5050559e-15 1.3397616e-31
1 -6.5050559e-15 1.8748673e-31
1 -6.5050559e-15 2.3955327e-31
1 -6.5050559e-15 2.9471526e-31
1 -6.5050559e-15 3.4696241e-31
1 0 0
1 0 0
1 0 0
1 0 0
1 0 0
1 -9.230012e-15 2.6753421e-31
1 -9.230012e-15 3.7088397e-31
1 -9.230012e-15 4.7290455e-31
1 -9.230012e-15 5.7687033e-31
1 -9.230012e-15 6.8035008e-31
1 2.1437129e-14 7.4550032e-31
1 2.1437129e-14 1.0262913e-30
1 2.1437129e-14 1.3085836e-30
1 2.1437129e-14 1.5899725e-30
1 2.1437129e-14 1.8699238e-30
1 8.3459906e-16 4.2203804e-33
1 8.3459906e-16 5.7834842e-33
1 8.3459906e-16 7.3465881e-33
1 8.3459906e-16 8.9096919e-33
1 8.3459906e-16 1.0472796e-32
