# vtk DataFile Version 4.0
hesp visualization file
ASCII
DATASET UNSTRUCTURED_GRID
POINTS 125 double
0.5 0.24025949 0.5
0.5 0.24025949 0.7
0.5 0.24025949 0.9
0.5 0.24025949 1.1
0.5 0.24025949 1.3
0.505 0.27018109 0.51
0.505 0.27018109 0.71
0.505 0.27018109 0.91
0.505 0.27018109 1.11
0.505 0.27018109 1.31
0.51 0.21200211 0.52
0.51 0.21200211 0.72
0.51 0.21200211 0.92
0.51 0.21200211 1.12
0.51 0.21200211 1.32
0.515 0.25728703 0.53
0.515 0.25728703 0.73
0.515 0.25728703 0.93
0.515 0.25728703 1.13
0.515 0.25728703 1.33
0.52 0.36230385 0.54
0.52 0.36230385 0.74
0.52 0.36230385 0.94
0.52 0.36230385 1.14
0.52 0.36230385 1.34
0.7 0.24025949 0.5
0.7 0.24025949 0.7
0.7 0.24025949 0.9
0.7 0.24025949 1.1
0.7 0.24025949 1.3
0.705 0.27018109 0.51
0.705 0.27018109 0.71
0.705 0.27018109 0.91
0.705 0.27018109 1.11
0.705 0.27018109 1.31
0.71 0.21200211 0.52
0.71 0.21200211 0.72
0.71 0.21200211 0.92
0.71 0.21200211 1.12
0.71 0.21200211 1.32
0.715 0.25728703 0.53
0.715 0.25728703 0.73
0.715 0.25728703 0.93
0.715 0.25728703 1.13
0.715 0.25728703 1.33
0.72 0.36230385 0.54
0.72 0.36230385 0.74
0.72 0.36230385 0.94
0.72 0.36230385 1.14
0.72 0.36230385 1.34
0.9 0.24025949 0.5
0.9 0.24025949 0.7
0.9 0.24025949 0.9
0.9 0.24025949 1.1
0.9 0.24025949 1.3
0.905 0.27018109 0.51
0.905 0.27018109 0.71
0.905 0.27018109 0.91
0.905 0.27018109 1.11
0.905 0.27018109 1.31
0.91 0.21200211 0.52
0.91 0.21200211 0.72
0.91 0.21200211 0.92
0.91 0.21200211 1.12
0.91 0.21200211 1.32
0.915 0.25728703 0.53
0.915 0.25728703 0.73
0.915 0.25728703 0.93
0.915 0.25728703 1.13
0.915 0.25728703 1.33
0.92 0.36230385 0.54
0.92 0.36230385 0.74
0.92 0.36230385 0.94
0.92 0.36230385 1.14
0.92 0.36230385 1.34
1.1 0.24025949 0.5
1.1 0.24025949 0.7
1.1 0.24025949 0.9
1.1 0.24025949 1.1
1.1 0.24025949 1.3
1.105 0.27018109 0.51
1.105 0.27018109 0.71
1.105 0.27018109 0.91
1.105 0.27018109 1.11
1.105 0.27018109 1.31
1.11 0.21200211 0.52
1.11 0.21200211 0.72
1.11 0.21200211 0.92
1.11 0.21200211 1.12
1.11 0.21200211 1.32
1.115 0.25728703 0.53
1.115 0.25728703 0.73
1.115 0.25728703 0.93
1.115 0.25728703 1.13
1.115 0.25728703 1.33
1.12 0.36230385 0.54
1.12 0.36230385 0.74
1.12 0.36230385 0.94
1.12 0.36230385 1.14
1.12 0.36230385 1.34
1.3 0.24025949 0.5
1.3 0.24025949 0.7
1.3 0.24025949 0.9
1.3 0.24025949 1.1
1.3 0.24025949 1.3
1.305 0.27018109 0.51
1.305 0.27018109 0.71
1.305 0.27018109 0.91
1.305 0.27018109 1.11
1.305 0.27018109 1.31
1.31 0.21200211 0.52
1.31 0.21200211 0.72
1.31 0.21200211 0.92
1.31 0.21200211 1.12
1.31 0.21200211 1.32
1.315 0.25728703 0.53
1.315 0.25728703 0.73
1.315 0.25728703 0.93
1.315 0.25728703 1.13
1.315 0.25728703 1.33
1.32 0.36230385 0.54
1.32 0.36230385 0.74
1.32 0.36230385 0.94
1.32 0.36230385 1.14
1.32 0.36230385 1.34
CELLS 0 0
CELL_TYPES 0
POINT_DATA 125
SCALARS m double
LOOKUP_TABLE default
1
1
1
1
1
1
1
1
1
1
1
1
1
1
1
1
1
1
1
1
1
1
1
1
1
1
1
1
1
1
1
1
1
1
1
1
1
1
1
1
1
1
1
1
1
1
1
1
1
1
1
1
1
1
1
1
1
1
1
1
1
1
1
1
1
1
1
1
1
1
1
1
1
1
1
1
1
1
1
1
1
1
1
1
1
1
1
1
1
1
1
1
1
1
1
1
1
1
1
1
1
1
1
1
1
1
1
1
1
1
1
1
1
1
1
1
1
1
1
1
1
1
1
1
1
SCALARS r double
LOOKUP_TABLE default
0.1
0.1
0.1
0.1
0.1
0.1
0.1
0.1
0.1
0.1
0.1
0.1
0.1
0.1
0.1
0.1
0.1
0.1
0.1
0.1
0.1
0.1
0.1
0.1
0.1
0.1
0.1
0.1
0.1
0.1
0.1
0.1
0.1
0.1
0.1
0.1
0.1
0.1
0.1
0.1
0.1
0.1
0.1
0.1
0.1
0.1
0.1
0.1
0.1
0.1
0.1
0.1
0.1
0.1
0.1
0.1
0.1
0.1
0.1
0.1
0.1
0.1
0.1
0.1
0.1
0.1
0.1
0.1
0.1
0.1
0.1
0.1
0.1
0.1
0.1
0.1
0.1
0.1
0.1
0.1
0.1
0.1
0.1
0.1
0.1
0.1
0.1
0.1
0.1
0.1
0.1
0.1
0.1
0.1
0.1
0.1
0.1
0.1
0.1
0.1
0.1
0.1
0.1
0.1
0.1
0.1
0.1
0.1
0.1
0.1
0.1
0.1
0.1
0.1
0.1
0.1
0.1
0.1
0.1
0.1
0.1
0.1
0.1
0.1
0.1
VECTORS v double
9.0497415e-19 -0.23697405 9.0497415e-19
9.0497415e-19 -0.23697405 1.2669638e-18
9.0497415e-19 -0.23697405 1.6289535e-18
9.0497415e-19 -0.23697405 1.9909431e-18
9.0497415e-19 -0.23697405 2.3529328e-18
2.8027414e-19 -0.023279513 2.8304913e-19
2.8027414e-19 -0.023279513 3.9404879e-19
2.8027414e-19 -0.023279513 5.0504844e-19
2.8027414e-19 -0.023279513 6.160481e-19
2.8027414e-19 -0.023279513 7.2704776e-19
8.3001676e-19 -0.051985987 8.462916e-19
8.3001676e-19 -0.051985987 1.1717884e-18
8.3001676e-19 -0.051985987 1.4972851e-18
8.3001676e-19 -0.051985987 1.8227819e-18
8.3001676e-19 -0.051985987 2.1482787e-18
-1.9632008e-19 0.07511912 -2.0203814e-19
-1.9632008e-19 0.07511912 -2.7827895e-19
-1.9632008e-19 0.07511912 -3.5451976e-19
-1.9632008e-19 0.07511912 -4.3076057e-19
-1.9632008e-19 0.07511912 -5.0700137e-19
-2.2162774e-20 0.064080065 -2.3015189e-20
-2.2162774e-20 0.064080065 -3.1539333e-20
-2.2162774e-20 0.064080065 -4.0063477e-20
-2.2162774e-20 0.064080065 -4.8587621e-20
-2.2162774e-20 0.064080065 -5.7111765e-20
1.2669638e-18 -0.23697405 9.0497415e-19
1.2669638e-18 -0.23697405 1.2669638e-18
1.2669638e-18 -0.23697405 1.6289535e-18
1.2669638e-18 -0.23697405 1.9909431e-18
1.2669638e-18 -0.23697405 2.3529328e-18
3.9127379e-19 -0.023279513 2.8304913e-19
3.9127379e-19 -0.023279513 3.9404879e-19
3.9127379e-19 -0.023279513 5.0504844e-19
3.9127379e-19 -0.023279513 6.160481e-19
3.9127379e-19 -0.023279513 7.2704776e-19
1.1555135e-18 -0.051985987 8.462916e-19
1.1555135e-18 -0.051985987 1.1717884e-18
1.1555135e-18 -0.051985987 1.4972851e-18
1.1555135e-18 -0.051985987 1.8227819e-18
1.1555135e-18 -0.051985987 2.1482787e-18
-2.7256089e-19 0.07511912 -2.0203814e-19
-2.7256089e-19 0.07511912 -2.7827895e-19
-2.7256089e-19 0.07511912 -3.5451976e-19
-2.7256089e-19 0.07511912 -4.3076057e-19
-2.7256089e-19 0.07511912 -5.0700137e-19
-3.0686918e-20 0.064080065 -2.3015189e-20
-3.0686918e-20 0.064080065 -3.1539333e-20
-3.0686918e-20 0.064080065 -4.0063477e-20
-3.0686918e-20 0.064080065 -4.8587621e-20
-3.0686918e-20 0.064080065 -5.7111765e-20
1.6289535e-18 -0.23697405 9.0497415e-19
1.6289535e-18 -0.23697405 1.2669638e-18
1.6289535e-18 -0.23697405 1.6289535e-18
1.6289535e-18 -0.23697405 1.9909431e-18
1.6289535e-18 -0.23697405 2.3529328e-18
5.0227345e-19 -0.023279513 2.8304913e-19
5.0227345e-19 -0.023279513 3.9404879e-19
5.0227345e-19 -0.023279513 5.0504844e-19
5.0227345e-19 -0.023279513 6.160481e-19
5.0227345e-19 -0.023279513 7.2704776e-19
1.4810103e-18 -0.051985987 8.462916e-19
1.4810103e-18 -0.051985987 1.1717884e-18
1.4810103e-18 -0.051985987 1.4972851e-18
1.4810103e-18 -0.051985987 1.8227819e-18
1.4810103e-18 -0.051985987 2.1482787e-18
-3.488017e-19 0.07511912 -2.0203814e-19
-3.488017e-19 0.07511912 -2.7827895e-19
-3.488017e-19 0.07511912 -3.5451976e-19
-3.488017e-19 0.07511912 -4.3076057e-19
-3.488017e-19 0.07511912 -5.0700137e-19
-3.9211062e-20 0.064080065 -2.3015189e-20
-3.9211062e-20 0.064080065 -3.1539333e-20
-3.9211062e-20 0.064080065 -4.0063477e-20
-3.9211062e-20 0.064080065 -4.8587621e-20
-3.9211062e-20 0.064080065 -5.7111765e-20
1.9909431e-18 -0.23697405 9.0497415e-19
1.9909431e-18 -0.23697405 1.2669638e-18
1.9909431e-18 -0.23697405 1.6289535e-18
1.9909431e-18 -0.23697405 1.9909431e-18
1.9909431e-18 -0.23697405 2.3529328e-18
6.1327311e-19 -0.023279513 2.8304913e-19
6.1327311e-19 -0.023279513 3.9404879e-19
6.1327311e-19 -0.023279513 5.0504844e-19
6.1327311e-19 -0.023279513 6.160481e-19
6.1327311e-19 -0.023279513 7.2704776e-19
1.8065071e-18 -0.051985987 8.462916e-19
1.8065071e-18 -0.051985987 1.1717884e-18
1.8065071e-18 -0.051985987 1.4972851e-18
1.8065071e-18 -0.051985987 1.8227819e-18
1.8065071e-18 -0.051985987 2.1482787e-18
-4.2504251e-19 0.07511912 -2.0203814e-19
-4.2504251e-19 0.07511912 -2.7827895e-19
-4.2504251e-19 0.07511912 -3.5451976e-19
-4.2504251e-19 0.07511912 -4.3076057e-19
-4.2504251e-19 0.07511912 -5.0700137e-19
-4.7735206e-20 0.064080065 -2.3015189e-20
-4.7735206e-20 0.064080065 -3.1539333e-20
-4.7735206e-20 0.064080065 -4.0063477e-20
-4.7735206e-20 0.064080065 -4.8587621e-20
-4.7735206e-20 0.064080065 -5.7111765e-20
2.3529328e-18 -0.23697405 9.0497415e-19
2.3529328e-18 -0.23697405 1.2669638e-18
2.3529328e-18 -0.23697405 1.6289535e-18
2.3529328e-18 -0.23697405 1.9909431e-18
2.3529328e-18 -0.23697405 2.3529328e-18
7.2427277e-19 -0.023279513 2.8304913e-19
7.2427277e-19 -0.023279513 3.9404879e-19
7.2427277e-19 -0.023279513 5.0504844e-19
7.2427277e-19 -0.023279513 6.160481e-19
7.2427277e-19 -0.023279513 7.2704776e-19
2.1320038e-18 -0.051985987 8.462916e-19
2.1320038e-18 -0.051985987 1.1717884e-18
2.1320038e-18 -0.051985987 1.4972851e-18
2.1320038e-18 -0.051985987 1.8227819e-18
2.1320038e-18 -0.051985987 2.1482787e-18
-5.0128331e-19 0.07511912 -2.0203814e-19
-5.0128331e-19 0.07511912 -2.7827895e-19
-5.0128331e-19 0.07511912 -3.5451976e-19
-5.0128331e-19 0.07511912 -4.3076057e-19
-5.0128331e-19 0.07511912 -5.0700137e-19
-5.625935e-20 0.064080065 -2.3015189e-20
-5.625935e-20 0.064080065 -3.1539333e-20
-5.625935e-20 0.064080065 -4.0063477e-20
-5.625935e-20 0.064080065 -4.8587621e-20
-5.625935e-20 0.064080065 -5.7111765e-20
VECTORS q double
1 -1.0335192e-12 8.7227428e-28
1 -1.0335192e-12 1.2211789e-27
1 -1.0335192e-12 1.5700851e-27
1 -1.0335192e-12 1.9190051e-27
1 -1.0335192e-12 2.2679871e-27
1 -1.7967082e-13 4.8347392e-29
1 -1.7967082e-13 6.7318494e-29
1 -1.7967082e-13 8.6260404e-29
1 -1.7967082e-13 1.0525398e-28
1 -1.7967082e-13 1.2420772e-28
1 -8.5439044e-13 6.3246225e-28
1 -8.5439044e-13 8.7570818e-28
1 -8.5439044e-13 1.11889e-27
1 -8.5439044e-13 1.3621898e-27
1 -8.5439044e-13 1.6056078e-27
1 3.3532962e-13 6.6325734e-29
1 3.3532962e-13 9.1304513e-29
1 3.3532962e-13 1.1639707e-28
1 3.3532962e-13 1.4143726e-28
1 3.3532962e-13 1.6641282e-28
1 7.9043508e-14 1.7413598e-30
1 7.9043508e-14 2.3514114e-30
1 7.9043508e-14 3.0203005e-30
1 7.9043508e-14 3.6385553e-30
1 7.9043508e-14 4.2729347e-30
1 -1.4469269e-12 1.2211878e-27
1 -1.4469269e-12 1.7096565e-27
1 -1.4469269e-12 2.1982474e-27
1 -1.4469269e-12 2.6866688e-27
1 -1.4469269e-12 3.175229e-27
1 -2.5082758e-13 6.7484606e-29
1 -2.5082758e-13 9.3970269e-29
1 -2.5082758e-13 1.2041136e-28
1 -2.5082758e-13 1.4691788e-28
1 -2.5082758e-13 1.7337886e-28
1 -1.1894455e-12 8.8051178e-28
1 -1.1894455e-12 1.2191866e-27
1 -1.1894455e-12 1.5577361e-27
1 -1.1894455e-12 1.8964327e-27
1 -1.1894455e-12 2.235254e-27
1 4.6555472e-13 9.2109153e-29
1 4.6555472e-13 1.2680193e-28
1 4.6555472e-13 1.616532e-28
1 4.6555472e-13 1.9642762e-28
1 4.6555472e-13 2.3111216e-28
1 1.0944486e-13 2.4045674e-30
1 1.0944486e-13 3.2482834e-30
1 1.0944486e-13 4.1765779e-30
1 1.0944486e-13 5.0300612e-30
1 1.0944486e-13 5.9026717e-30
1 -1.8603346e-12 1.5701046e-27
1 -1.8603346e-12 2.1980073e-27
1 -1.8603346e-12 2.8261695e-27
1 -1.8603346e-12 3.4542286e-27
1 -1.8603346e-12 4.0823665e-27
1 -3.2198434e-13 8.6640541e-29
1 -3.2198434e-13 1.206419e-28
1 -3.2198434e-13 1.5458488e-28
1 -3.2198434e-13 1.8861298e-28
1 -3.2198434e-13 2.2258612e-28
1 -1.5245006e-12 1.1286125e-27
1 -1.5245006e-12 1.56271e-27
1 -1.5245006e-12 1.9966254e-27
1 -1.5245006e-12 2.4308291e-27
1 -1.5245006e-12 2.8651591e-27
1 5.9577982e-13 1.1784622e-28
1 5.9577982e-13 1.6223036e-28
1 5.9577982e-13 2.0681341e-28
1 5.9577982e-13 2.5130955e-28
1 5.9577982e-13 2.9568051e-28
1 1.3984621e-13 3.0886693e-30
1 1.3984621e-13 4.171603e-30
1 1.3984621e-13 5.3600292e-30
1 1.3984621e-13 6.4542957e-30
1 1.3984621e-13 7.5798339e-30
1 -2.2737422e-12 1.9190002e-27
1 -2.2737422e-12 2.68655e-27
1 -2.2737422e-12 3.4541847e-27
1 -2.2737422e-12 4.2218085e-27
1 -2.2737422e-12 4.9895525e-27
1 -3.9314111e-13 1.0576462e-28
1 -3.9314111e-13 1.4727026e-28
1 -3.9314111e-13 1.8870423e-28
1 -3.9314111e-13 2.3024995e-28
1 -3.9314111e-13 2.7172102e-28
1 -1.8595557e-12 1.3767586e-27
1 -1.8595557e-12 1.906288e-27
1 -1.8595557e-12 2.4356179e-27
1 -1.8595557e-12 2.9652384e-27
1 -1.8595557e-12 3.4950946e-27
1 7.2600492e-13 1.4364172e-28
1 7.2600492e-13 1.9773686e-28
1 7.2600492e-13 2.5207964e-28
1 7.2600492e-13 3.0631129e-28
1 7.2600492e-13 3.6039522e-28
1 1.7024756e-13 3.7524469e-30
1 1.7024756e-13 5.0681915e-30
1 1.7024756e-13 6.514355e-30
1 1.7024756e-13 7.8430519e-30
1 1.7024756e-13 9.2124447e-30
1 -2.6871499e-12 2.267841e-27
1 -2.6871499e-12 3.1749084e-27
1 -2.6871499e-12 4.082097e-27
1 -2.6871499e-12 4.9892717e-27
1 -2.6871499e-12 5.8966178e-27
1 -4.6429787e-13 1.2492997e-28
1 -4.6429787e-13 1.739553e-28
1 -4.6429787e-13 2.2289742e-28
1 -4.6429787e-13 2.7197377e-28
1 -4.6429787e-13 3.2095605e-28
1 -2.1946107e-12 1.6245603e-27
1 -2.1946107e-12 2.2494142e-27
1 -2.1946107e-12 2.8739894e-27
1 -2.1946107e-12 3.4991168e-27
1 -2.1946107e-12 4.1241965e-27
1 8.5623001e-13 1.6940501e-28
1 8.5623001e-13 2.3322837e-28
1 8.5623001e-13 2.9730469e-28
1 8.5623001e-13 3.6126162e-28
1 8.5623001e-13 4.2505857e-28
1 2.0064891e-13 4.4516298e-30
1 2.0064891e-13 6.0151707e-30
1 2.0064891e-13 7.7245756e-30
1 2.0064891e-13 9.3040482e-30
1 2.0064891e-13 1.0926943e-29
