# vtk DataFile Version 4.0
hesp visualization file
ASCII
DATASET UNSTRUCTURED_GRID
POINTS 125 double
0.5 0.34208225 0.5
0.5 0.34208225 0.7
0.5 0.34208225 0.9
0.5 0.34208225 1.1
0.5 0.34208225 1.3
0.505 0.34158217 0.51
0.505 0.34158217 0.71
0.505 0.34158217 0.91
0.505 0.34158217 1.11
0.505 0.34158217 1.31
0.51 0.21274205 0.52
0.51 0.21274205 0.72
0.51 0.21274205 0.92
0.51 0.21274205 1.12
0.51 0.21274205 1.32
0.515 0.30478509 0.53
0.515 0.30478509 0.73
0.515 0.30478509 0.93
0.515 0.30478509 1.13
0.515 0.30478509 1.33
0.52 0.22535007 0.54
0.52 0.22535007 0.74
0.52 0.22535007 0.94
0.52 0.22535007 1.14
0.52 0.22535007 1.34
0.7 0.34208225 0.5
0.7 0.34208225 0.7
0.7 0.34208225 0.9
0.7 0.34208225 1.1
0.7 0.34208225 1.3
0.705 0.34158217 0.51
0.705 0.34158217 0.71
0.705 0.34158217 0.91
0.705 0.34158217 1.11
0.705 0.34158217 1.31
0.71 0.21274205 0.52
0.71 0.21274205 0.72
0.71 0.21274205 0.92
0.71 0.21274205 1.12
0.71 0.21274205 1.32
0.715 0.30478509 0.53
0.715 0.30478509 0.73
0.715 0.30478509 0.93
0.715 0.30478509 1.13
0.715 0.30478509 1.33
0.72 0.22535007 0.54
0.72 0.22535007 0.74
0.72 0.22535007 0.94
0.72 0.22535007 1.14
0.72 0.22535007 1.34
0.9 0.34208225 0.5
0.9 0.34208225 0.7
0.9 0.34208225 0.9
0.9 0.34208225 1.1
0.9 0.34208225 1.3
0.905 0.34158217 0.51
0.905 0.34158217 0.71
0.905 0.34158217 0.91
0.905 0.34158217 1.11
0.905 0.34158217 1.31
0.91 0.21274205 0.52
0.91 0.21274205 0.72
0.91 0.21274205 0.92
0.91 0.21274205 1.12
0.91 0.21274205 1.32
0.915 0.30478509 0.53
0.915 0.30478509 0.73
0.915 0.30478509 0.93
0.915 0.30478509 1.13
0.915 0.30478509 1.33
0.92 0.22535007 0.54
0.92 0.22535007 0.74
0.92 0.22535007 0.94
0.92 0.22535007 1.14
0.92 0.22535007 1.34
1.1 0.34208225 0.5
1.1 0.34208225 0.7
1.1 0.34208225 0.9
1.1 0.34208225 1.1
1.1 0.34208225 1.3
1.105 0.34158217 0.51
1.105 0.34158217 0.71
1.105 0.34158217 0.91
1.105 0.34158217 1.11
1.105 0.34158217 1.31
1.11 0.21274205 0.52
1.11 0.21274205 0.72
1.11 0.21274205 0.92
1.11 0.21274205 1.12
1.11 0.21274205 1.32
1.115 0.30478509 0.53
1.115 0.30478509 0.73
1.115 0.30478509 0.93
1.115 0.30478509 1.13
1.115 0.30478509 1.33
1.12 0.22535007 0.54
1.12 0.22535007 0.74
1.12 0.22535007 0.94
1.12 0.22535007 1.14
1.12 0.22535007 1.34
1.3 0.34208225 0.5
1.3 0.34208225 0.7
1.3 0.34208225 0.9
1.3 0.34208225 1.1
1.3 0.34208225 1.3
1.305 0.34158217 0.51
1.305 0.34158217 0.71
1.305 0.34158217 0.91
1.305 0.34158217 1.11
1.305 0.34158217 1.31
1.31 0.21274205 0.52
1.31 0.21274205 0.72
1.31 0.21274205 0.92
1.31 0.21274205 1.12
1.31 0.21274205 1.32
1.315 0.30478509 0.53
1.315 0.30478509 0.73
1.315 0.30478509 0.93
1.315 0.30478509 1.13
1.315 0.30478509 1.33
1.32 0.22535007 0.54
1.32 0.22535007 0.74
1.32 0.22535007 0.94
1.32 0.22535007 1.14
1.32 0.22535007 1.34
CELLS 0 0
CELL_TYPES 0
POINT_DATA 125
SCALARS m double
LOOKUP_TABLE default
1
1
1
1
1
1
1
1
1
1
1
1
1
1
1
1
1
1
1
1
1
1
1
1
1
1
1
1
1
1
1
1
1
1
1
1
1
1
1
1
1
1
1
1
1
1
1
1
1
1
1
1
1
1
1
1
1
1
1
1
1
1
1
1
1
1
1
1
1
1
1
1
1
1
1
1
1
1
1
1
1
1
1
1
1
1
1
1
1
1
1
1
1
1
1
1
1
1
1
1
1
1
1
1
1
1
1
1
1
1
1
1
1
1
1
1
1
1
1
1
1
1
1
1
1
SCALARS r double
LOOKUP_TABLE default
0.1
0.1
0.1
0.1
0.1
0.1
0.1
0.1
0.1
0.1
0.1
0.1
0.1
0.1
0.1
0.1
0.1
0.1
0.1
0.1
0.1
0.1
0.1
0.1
0.1
0.1
0.1
0.1
0.1
0.1
0.1
0.1
0.1
0.1
0.1
0.1
0.1
0.1
0.1
0.1
0.1
0.1
0.1
0.1
0.1
0.1
0.1
0.1
0.1
0.1
0.1
0.1
0.1
0.1
0.1
0.1
0.1
0.1
0.1
0.1
0.1
0.1
0.1
0.1
0.1
0.1
0.1
0.1
0.1
0.1
0.1
0.1
0.1
0.1
0.1
0.1
0.1
0.1
0.1
0.1
0.1
0.1
0.1
0.1
0.1
0.1
0.1
0.1
0.1
0.1
0.1
0.1
0.1
0.1
0.1
0.1
0.1
0.1
0.1
0.1
0.1
0.1
0.1
0.1
0.1
0.1
0.1
0.1
0.1
0.1
0.1
0.1
0.1
0.1
0.1
0.1
0.1
0.1
0.1
0.1
0.1
0.1
0.1
0.1
0.1
VECTORS v double
4.9689238e-20 -0.38842274 4.9689238e-20
4.9689238e-20 -0.38842274 6.9564934e-20
4.9689238e-20 -0.38842274 8.9440629e-20
4.9689238e-20 -0.38842274 1.0931632e-19
4.9689238e-20 -0.38842274 1.2919202e-19
0 0.10462104 0
0 0.10462104 0
0 0.10462104 0
0 0.10462104 0
0 0.10462104 0
5.3441348e-20 -0.0077287736 5.4489218e-20
5.3441348e-20 -0.0077287736 7.5446609e-20
5.3441348e-20 -0.0077287736 9.6404001e-20
5.3441348e-20 -0.0077287736 1.1736139e-19
5.3441348e-20 -0.0077287736 1.3831878e-19
-3.734874e-20 0.27321919 -3.8436568e-20
-3.734874e-20 0.27321919 -5.2940933e-20
-3.734874e-20 0.27321919 -6.7445298e-20
-3.734874e-20 0.27321919 -8.1949664e-20
-3.734874e-20 0.27321919 -9.6454029e-20
-5.7770067e-21 0.12256445 -5.9991993e-21
-5.7770067e-21 0.12256445 -8.2211249e-21
-5.7770067e-21 0.12256445 -1.0443051e-20
-5.7770067e-21 0.12256445 -1.2664976e-20
-5.7770067e-21 0.12256445 -1.4886902e-20
6.9564934e-20 -0.38842274 4.9689238e-20
6.9564934e-20 -0.38842274 6.9564934e-20
6.9564934e-20 -0.38842274 8.9440629e-20
6.9564934e-20 -0.38842274 1.0931632e-19
6.9564934e-20 -0.38842274 1.2919202e-19
0 0.10462104 0
0 0.10462104 0
0 0.10462104 0
0 0.10462104 0
0 0.10462104 0
7.439874e-20 -0.0077287736 5.4489218e-20
7.439874e-20 -0.0077287736 7.5446609e-20
7.439874e-20 -0.0077287736 9.6404001e-20
7.439874e-20 -0.0077287736 1.1736139e-19
7.439874e-20 -0.0077287736 1.3831878e-19
-5.1853106e-20 0.27321919 -3.8436568e-20
-5.1853106e-20 0.27321919 -5.2940933e-20
-5.1853106e-20 0.27321919 -6.7445298e-20
-5.1853106e-20 0.27321919 -8.1949664e-20
-5.1853106e-20 0.27321919 -9.6454029e-20
-7.9989324e-21 0.12256445 -5.9991993e-21
-7.9989324e-21 0.12256445 -8.2211249e-21
-7.9989324e-21 0.12256445 -1.0443051e-20
-7.9989324e-21 0.12256445 -1.2664976e-20
-7.9989324e-21 0.12256445 -1.4886902e-20
8.9440629e-20 -0.38842274 4.9689238e-20
8.9440629e-20 -0.38842274 6.9564934e-20
8.9440629e-20 -0.38842274 8.9440629e-20
8.9440629e-20 -0.38842274 1.0931632e-19
8.9440629e-20 -0.38842274 1.2919202e-19
0 0.10462104 0
0 0.10462104 0
0 0.10462104 0
0 0.10462104 0
0 0.10462104 0
9.5356131e-20 -0.0077287736 5.4489218e-20
9.5356131e-20 -0.0077287736 7.5446609e-20
9.5356131e-20 -0.0077287736 9.6404001e-20
9.5356131e-20 -0.0077287736 1.1736139e-19
9.5356131e-20 -0.0077287736 1.3831878e-19
-6.6357471e-20 0.27321919 -3.8436568e-20
-6.6357471e-20 0.27321919 -5.2940933e-20
-6.6357471e-20 0.27321919 -6.7445298e-20
-6.6357471e-20 0.27321919 -8.1949664e-20
-6.6357471e-20 0.27321919 -9.6454029e-20
-1.0220858e-20 0.12256445 -5.9991993e-21
-1.0220858e-20 0.12256445 -8.2211249e-21
-1.0220858e-20 0.12256445 -1.0443051e-20
-1.0220858e-20 0.12256445 -1.2664976e-20
-1.0220858e-20 0.12256445 -1.4886902e-20
1.0931632e-19 -0.38842274 4.9689238e-20
1.0931632e-19 -0.38842274 6.9564934e-20
1.0931632e-19 -0.38842274 8.9440629e-20
1.0931632e-19 -0.38842274 1.0931632e-19
1.0931632e-19 -0.38842274 1.2919202e-19
0 0.10462104 0
0 0.10462104 0
0 0.10462104 0
0 0.10462104 0
0 0.10462104 0
1.1631352e-19 -0.0077287736 5.4489218e-20
1.1631352e-19 -0.0077287736 7.5446609e-20
1.1631352e-19 -0.0077287736 9.6404001e-20
1.1631352e-19 -0.0077287736 1.1736139e-19
1.1631352e-19 -0.0077287736 1.3831878e-19
-8.0861836e-20 0.27321919 -3.8436568e-20
-8.0861836e-20 0.27321919 -5.2940933e-20
-8.0861836e-20 0.27321919 -6.7445298e-20
-8.0861836e-20 0.27321919 -8.1949664e-20
-8.0861836e-20 0.27321919 -9.6454029e-20
-1.2442784e-20 0.12256445 -5.9991993e-21
-1.2442784e-20 0.12256445 -8.2211249e-21
-1.2442784e-20 0.12256445 -1.0443051e-20
-1.2442784e-20 0.12256445 -1.2664976e-20
-1.2442784e-20 0.12256445 -1.4886902e-20
1.2919202e-19 -0.38842274 4.9689238e-20
1.2919202e-19 -0.38842274 6.9564934e-20
1.2919202e-19 -0.38842274 8.9440629e-20
1.2919202e-19 -0.38842274 1.0931632e-19
1.2919202e-19 -0.38842274 1.2919202e-19
0 0.10462104 0
0 0.10462104 0
0 0.10462104 0
0 0.10462104 0
0 0.10462104 0
1.3727091e-19 -0.0077287736 5.4489218e-20
1.3727091e-19 -0.0077287736 7.5446609e-20
1.3727091e-19 -0.0077287736 9.6404001e-20
1.3727091e-19 -0.0077287736 1.1736139e-19
1.3727091e-19 -0.0077287736 1.3831878e-19
-9.5366201e-20 0.27321919 -3.8436568e-20
-9.5366201e-20 0.27321919 -5.2940933e-20
-9.5366201e-20 0.27321919 -6.7445298e-20
-9.5366201e-20 0.27321919 -8.1949664e-20
-9.5366201e-20 0.27321919 -9.6454029e-20
-1.4664709e-20 0.12256445 -5.9991993e-21
-1.4664709e-20 0.12256445 -8.2211249e-21
-1.4664709e-20 0.12256445 -1.0443051e-20
-1.4664709e-20 0.12256445 -1.2664976e-20
-1.4664709e-20 0.12256445 -1.4886902e-20
VECTORS q double
1 -6.9471295e-15 2.8656427e-31
1 -6.9471295e-15 4.0076552e-31
1 -6.9471295e-15 5.1479472e-31
1 -6.9471295e-15 6.302142e-31
1 -6.9471295e-15 7.4333331e-31
1 0 0
1 0 0
1 0 0
1 0 0
1 0 0
1 -9.1305948e-15 4.5559677e-31
1 -9.1305948e-15 6.3113537e-31
1 -9.1305948e-15 8.0546066e-31
1 -9.1305948e-15 9.8166449e-31
1 -9.1305948e-15 1.1574198e-30
1 1.394097e-14 6.2117894e-31
1 1.394097e-14 8.5476695e-31
1 1.394097e-14 1.0903253e-30
1 1.394097e-14 1.3244027e-30
1 1.394097e-14 1.5574579e-30
1 1.4046446e-15 1.4731992e-32
1 1.4046446e-15 2.0154174e-32
1 1.4046446e-15 2.5607652e-32
1 1.4046446e-15 3.1065945e-32
1 1.4046446e-15 3.6483337e-32
1 -9.7259813e-15 4.0180146e-31
1 -9.7259813e-15 5.6197392e-31
1 -9.7259813e-15 7.2117728e-31
1 -9.7259813e-15 8.830962e-31
1 -9.7259813e-15 1.0416232e-30
1 0 0
1 0 0
1 0 0
1 0 0
1 0 0
1 -1.271122e-14 6.3386557e-31
1 -1.271122e-14 8.7801524e-31
1 -1.271122e-14 1.1206849e-30
1 -1.271122e-14 1.3664701e-30
1 -1.271122e-14 1.6104685e-30
1 1.9354939e-14 8.6243802e-31
1 1.9354939e-14 1.1868067e-30
1 1.9354939e-14 1.513644e-30
1 1.9354939e-14 1.8392111e-30
1 1.9354939e-14 2.1630532e-30
1 1.9448926e-15 2.0400515e-32
1 1.9448926e-15 2.7906327e-32
1 1.9448926e-15 3.5479667e-32
1 1.9448926e-15 4.3034952e-32
1 1.9448926e-15 5.0534067e-32
1 -1.2504833e-14 5.1668476e-31
1 -1.2504833e-14 7.227502e-31
1 -1.2504833e-14 9.28518e-31
1 -1.2504833e-14 1.1363634e-30
1 -1.2504833e-14 1.339942e-30
1 0 0
1 0 0
1 0 0
1 0 0
1 0 0
1 -1.6291846e-14 8.1418606e-31
1 -1.6291846e-14 1.1278984e-30
1 -1.6291846e-14 1.4392131e-30
1 -1.6291846e-14 1.7552264e-30
1 -1.6291846e-14 2.0689258e-30
1 2.4768908e-14 1.1032664e-30
1 2.4768908e-14 1.5182607e-30
1 2.4768908e-14 1.9364178e-30
1 2.4768908e-14 2.3532875e-30
1 2.4768908e-14 2.7669939e-30
1 2.4851405e-15 2.6061864e-32
1 2.4851405e-15 3.5650584e-32
1 2.4851405e-15 4.5311527e-32
1 2.4851405e-15 5.4954414e-32
1 2.4851405e-15 6.4546857e-32
1 -1.5283685e-14 6.3040769e-31
1 -1.5283685e-14 8.8187379e-31
1 -1.5283685e-14 1.1329758e-30
1 -1.5283685e-14 1.3874189e-30
1 -1.5283685e-14 1.6350885e-30
1 0 0
1 0 0
1 0 0
1 0 0
1 0 0
1 -1.9872471e-14 9.9192523e-31
1 -1.9872471e-14 1.3742902e-30
1 -1.9872471e-14 1.7541641e-30
1 -1.9872471e-14 2.1381983e-30
1 -1.9872471e-14 2.5214769e-30
1 3.0182877e-14 1.3451267e-30
1 3.0182877e-14 1.8508496e-30
1 3.0182877e-14 2.3610312e-30
1 3.0182877e-14 2.8685018e-30
1 3.0182877e-14 3.373182e-30
1 3.0253884e-15 3.1732818e-32
1 3.0253884e-15 4.3396382e-32
1 3.0253884e-15 5.5176705e-32
1 3.0253884e-15 6.6920917e-32
1 3.0253884e-15 7.8598887e-32
1 -1.8062537e-14 7.4677877e-31
1 -1.8062537e-14 1.0446947e-30
1 -1.8062537e-14 1.3412528e-30
1 -1.8062537e-14 1.642657e-30
1 -1.8062537e-14 1.9390409e-30
1 0 0
1 0 0
1 0 0
1 0 0
1 0 0
1 -2.3453096e-14 1.171365e-30
1 -2.3453096e-14 1.6235596e-30
1 -2.3453096e-14 2.0716622e-30
1 -2.3453096e-14 2.5250279e-30
1 -2.3453096e-14 2.9770781e-30
1 3.5596846e-14 1.5855303e-30
1 3.5596846e-14 2.182404e-30
1 3.5596846e-14 2.7830319e-30
1 3.5596846e-14 3.3816099e-30
1 3.5596846e-14 3.9767779e-30
1 3.5656364e-15 3.7414847e-32
1 3.5656364e-15 5.1186958e-32
1 3.5656364e-15 6.5023876e-32
1 3.5656364e-15 7.8911735e-32
1 3.5656364e-15 9.2652892e-32
