# vtk DataFile Version 4.0
hesp visualization file
ASCII
DATASET UNSTRUCTURED_GRID
POINTS 125 double
0.5 0.23878008 0.5
0.5 0.23878008 0.7
0.5 0.23878008 0.9
0.5 0.23878008 1.1
0.5 0.23878008 1.3
0.505 0.24547679 0.51
0.505 0.24547679 0.71
0.505 0.24547679 0.91
0.505 0.24547679 1.11
0.505 0.24547679 1.31
0.51 0.26551737 0.52
0.51 0.26551737 0.72
0.51 0.26551737 0.92
0.51 0.26551737 1.12
0.51 0.26551737 1.32
0.515 0.25676196 0.53
0.515 0.25676196 0.73
0.515 0.25676196 0.93
0.515 0.25676196 1.13
0.515 0.25676196 1.33
0.52 0.2165499 0.54
0.52 0.2165499 0.74
0.52 0.2165499 0.94
0.52 0.2165499 1.14
0.52 0.2165499 1.34
0.7 0.23878008 0.5
0.7 0.23878008 0.7
0.7 0.23878008 0.9
0.7 0.23878008 1.1
0.7 0.23878008 1.3
0.705 0.24547679 0.51
0.705 0.24547679 0.71
0.705 0.24547679 0.91
0.705 0.24547679 1.11
0.705 0.24547679 1.31
0.71 0.26551737 0.52
0.71 0.26551737 0.72
0.71 0.26551737 0.92
0.71 0.26551737 1.12
0.71 0.26551737 1.32
0.715 0.25676196 0.53
0.715 0.25676196 0.73
0.715 0.25676196 0.93
0.715 0.25676196 1.13
0.715 0.25676196 1.33
0.72 0.2165499 0.54
0.72 0.2165499 0.74
0.72 0.2165499 0.94
0.72 0.2165499 1.14
0.72 0.2165499 1.34
0.9 0.23878008 0.5
0.9 0.23878008 0.7
0.9 0.23878008 0.9
0.9 0.23878008 1.1
0.9 0.23878008 1.3
0.905 0.24547679 0.51
0.905 0.24547679 0.71
0.905 0.24547679 0.91
0.905 0.24547679 1.11
0.905 0.24547679 1.31
0.91 0.26551737 0.52
0.91 0.26551737 0.72
0.91 0.26551737 0.92
0.91 0.26551737 1.12
0.91 0.26551737 1.32
0.915 0.25676196 0.53
0.915 0.25676196 0.73
0.915 0.25676196 0.93
0.915 0.25676196 1.13
0.915 0.25676196 1.33
0.92 0.2165499 0.54
0.92 0.2165499 0.74
0.92 0.2165499 0.94
0.92 0.2165499 1.14
0.92 0.2165499 1.34
1.1 0.23878008 0.5
1.1 0.23878008 0.7
1.1 0.23878008 0.9
1.1 0.23878008 1.1
1.1 0.23878008 1.3
1.105 0.24547679 0.51
1.105 0.24547679 0.71
1.105 0.24547679 0.91
1.105 0.24547679 1.11
1.105 0.24547679 1.31
1.11 0.26551737 0.52
1.11 0.26551737 0.72
1.11 0.26551737 0.92
1.11 0.26551737 1.12
1.11 0.26551737 1.32
1.115 0.25676196 0.53
1.115 0.25676196 0.73
1.115 0.25676196 0.93
1.115 0.25676196 1.13
1.115 0.25676196 1.33
1.12 0.2165499 0.54
1.12 0.2165499 0.74
1.12 0.2165499 0.94
1.12 0.2165499 1.14
1.12 0.2165499 1.34
1.3 0.23878008 0.5
1.3 0.23878008 0.7
1.3 0.23878008 0.9
1.3 0.23878008 1.1
1.3 0.23878008 1.3
1.305 0.24547679 0.51
1.305 0.24547679 0.71
1.305 0.24547679 0.91
1.305 0.24547679 1.11
1.305 0.24547679 1.31
1.31 0.26551737 0.52
1.31 0.26551737 0.72
1.31 0.26551737 0.92
1.31 0.26551737 1.12
1.31 0.26551737 1.32
1.315 0.25676196 0.53
1.315 0.25676196 0.73
1.315 0.25676196 0.93
1.315 0.25676196 1.13
1.315 0.25676196 1.33
1.32 0.2165499 0.54
1.32 0.2165499 0.74
1.32 0.2165499 0.94
1.32 0.2165499 1.14
1.32 0.2165499 1.34
CELLS 0 0
CELL_TYPES 0
POINT_DATA 125
SCALARS m double
LOOKUP_TABLE default
1
1
1
1
1
1
1
1
1
1
1
1
1
1
1
1
1
1
1
1
1
1
1
1
1
1
1
1
1
1
1
1
1
1
1
1
1
1
1
1
1
1
1
1
1
1
1
1
1
1
1
1
1
1
1
1
1
1
1
1
1
1
1
1
1
1
1
1
1
1
1
1
1
1
1
1
1
1
1
1
1
1
1
1
1
1
1
1
1
1
1
1
1
1
1
1
1
1
1
1
1
1
1
1
1
1
1
1
1
1
1
1
1
1
1
1
1
1
1
1
1
1
1
1
1
SCALARS r double
LOOKUP_TABLE default
0.1
0.1
0.1
0.1
0.1
0.1
0.1
0.1
0.1
0.1
0.1
0.1
0.1
0.1
0.1
0.1
0.1
0.1
0.1
0.1
0.1
0.1
0.1
0.1
0.1
0.1
0.1
0.1
0.1
0.1
0.1
0.1
0.1
0.1
0.1
0.1
0.1
0.1
0.1
0.1
0.1
0.1
0.1
0.1
0.1
0.1
0.1
0.1
0.1
0.1
0.1
0.1
0.1
0.1
0.1
0.1
0.1
0.1
0.1
0.1
0.1
0.1
0.1
0.1
0.1
0.1
0.1
0.1
0.1
0.1
0.1
0.1
0.1
0.1
0.1
0.1
0.1
0.1
0.1
0.1
0.1
0.1
0.1
0.1
0.1
0.1
0.1
0.1
0.1
0.1
0.1
0.1
0.1
0.1
0.1
0.1
0.1
0.1
0.1
0.1
0.1
0.1
0.1
0.1
0.1
0.1
0.1
0.1
0.1
0.1
0.1
0.1
0.1
0.1
0.1
0.1
0.1
0.1
0.1
0.1
0.1
0.1
0.1
0.1
0.1
VECTORS v double
1.2521407e-18 -0.25901336 1.2521407e-18
1.2521407e-18 -0.25901336 1.752997e-18
1.2521407e-18 -0.25901336 2.2538533e-18
1.2521407e-18 -0.25901336 2.7547096e-18
1.2521407e-18 -0.25901336 3.2555659e-18
5.1800998e-19 0.26731761 5.2313879e-19
5.1800998e-19 0.26731761 7.2829126e-19
5.1800998e-19 0.26731761 9.3344372e-19
5.1800998e-19 0.26731761 1.1385962e-18
5.1800998e-19 0.26731761 1.3437487e-18
1.2129199e-18 0.10072644 1.2367026e-18
1.2129199e-18 0.10072644 1.7123575e-18
1.2129199e-18 0.10072644 2.1880123e-18
1.2129199e-18 0.10072644 2.6636672e-18
1.2129199e-18 0.10072644 3.139322e-18
-2.1312675e-19 -0.015813042 -2.1933432e-19
-2.1312675e-19 -0.015813042 -3.0210199e-19
-2.1312675e-19 -0.015813042 -3.8486966e-19
-2.1312675e-19 -0.015813042 -4.6763733e-19
-2.1312675e-19 -0.015813042 -5.50405e-19
1.404693e-20 -0.031806099 1.4587197e-20
1.404693e-20 -0.031806099 1.9989862e-20
1.404693e-20 -0.031806099 2.5392528e-20
1.404693e-20 -0.031806099 3.0795193e-20
1.404693e-20 -0.031806099 3.6197858e-20
1.752997e-18 -0.25901336 1.2521407e-18
1.752997e-18 -0.25901336 1.752997e-18
1.752997e-18 -0.25901336 2.2538533e-18
1.752997e-18 -0.25901336 2.7547096e-18
1.752997e-18 -0.25901336 3.2555659e-18
7.2316245e-19 0.26731761 5.2313879e-19
7.2316245e-19 0.26731761 7.2829126e-19
7.2316245e-19 0.26731761 9.3344372e-19
7.2316245e-19 0.26731761 1.1385962e-18
7.2316245e-19 0.26731761 1.3437487e-18
1.6885747e-18 0.10072644 1.2367026e-18
1.6885747e-18 0.10072644 1.7123575e-18
1.6885747e-18 0.10072644 2.1880123e-18
1.6885747e-18 0.10072644 2.6636672e-18
1.6885747e-18 0.10072644 3.139322e-18
-2.9589442e-19 -0.015813042 -2.1933432e-19
-2.9589442e-19 -0.015813042 -3.0210199e-19
-2.9589442e-19 -0.015813042 -3.8486966e-19
-2.9589442e-19 -0.015813042 -4.6763733e-19
-2.9589442e-19 -0.015813042 -5.50405e-19
1.9449596e-20 -0.031806099 1.4587197e-20
1.9449596e-20 -0.031806099 1.9989862e-20
1.9449596e-20 -0.031806099 2.5392528e-20
1.9449596e-20 -0.031806099 3.0795193e-20
1.9449596e-20 -0.031806099 3.6197858e-20
2.2538533e-18 -0.25901336 1.2521407e-18
2.2538533e-18 -0.25901336 1.752997e-18
2.2538533e-18 -0.25901336 2.2538533e-18
2.2538533e-18 -0.25901336 2.7547096e-18
2.2538533e-18 -0.25901336 3.2555659e-18
9.2831491e-19 0.26731761 5.2313879e-19
9.2831491e-19 0.26731761 7.2829126e-19
9.2831491e-19 0.26731761 9.3344372e-19
9.2831491e-19 0.26731761 1.1385962e-18
9.2831491e-19 0.26731761 1.3437487e-18
2.1642296e-18 0.10072644 1.2367026e-18
2.1642296e-18 0.10072644 1.7123575e-18
2.1642296e-18 0.10072644 2.1880123e-18
2.1642296e-18 0.10072644 2.6636672e-18
2.1642296e-18 0.10072644 3.139322e-18
-3.7866209e-19 -0.015813042 -2.1933432e-19
-3.7866209e-19 -0.015813042 -3.0210199e-19
-3.7866209e-19 -0.015813042 -3.8486966e-19
-3.7866209e-19 -0.015813042 -4.6763733e-19
-3.7866209e-19 -0.015813042 -5.50405e-19
2.4852261e-20 -0.031806099 1.4587197e-20
2.4852261e-20 -0.031806099 1.9989862e-20
2.4852261e-20 -0.031806099 2.5392528e-20
2.4852261e-20 -0.031806099 3.0795193e-20
2.4852261e-20 -0.031806099 3.6197858e-20
2.7547096e-18 -0.25901336 1.2521407e-18
2.7547096e-18 -0.25901336 1.752997e-18
2.7547096e-18 -0.25901336 2.2538533e-18
2.7547096e-18 -0.25901336 2.7547096e-18
2.7547096e-18 -0.25901336 3.2555659e-18
1.1334674e-18 0.26731761 5.2313879e-19
1.1334674e-18 0.26731761 7.2829126e-19
1.1334674e-18 0.26731761 9.3344372e-19
1.1334674e-18 0.26731761 1.1385962e-18
1.1334674e-18 0.26731761 1.3437487e-18
2.6398844e-18 0.10072644 1.2367026e-18
2.6398844e-18 0.10072644 1.7123575e-18
2.6398844e-18 0.10072644 2.1880123e-18
2.6398844e-18 0.10072644 2.6636672e-18
2.6398844e-18 0.10072644 3.139322e-18
-4.6142975e-19 -0.015813042 -2.1933432e-19
-4.6142975e-19 -0.015813042 -3.0210199e-19
-4.6142975e-19 -0.015813042 -3.8486966e-19
-4.6142975e-19 -0.015813042 -4.6763733e-19
-4.6142975e-19 -0.015813042 -5.50405e-19
3.0254926e-20 -0.031806099 1.4587197e-20
3.0254926e-20 -0.031806099 1.9989862e-20
3.0254926e-20 -0.031806099 2.5392528e-20
3.0254926e-20 -0.031806099 3.0795193e-20
3.0254926e-20 -0.031806099 3.6197858e-20
3.2555659e-18 -0.25901336 1.2521407e-18
3.2555659e-18 -0.25901336 1.752997e-18
3.2555659e-18 -0.25901336 2.2538533e-18
3.2555659e-18 -0.25901336 2.7547096e-18
3.2555659e-18 -0.25901336 3.2555659e-18
1.3386198e-18 0.26731761 5.2313879e-19
1.3386198e-18 0.26731761 7.2829126e-19
1.3386198e-18 0.26731761 9.3344372e-19
1.3386198e-18 0.26731761 1.1385962e-18
1.3386198e-18 0.26731761 1.3437487e-18
3.1155393e-18 0.10072644 1.2367026e-18
3.1155393e-18 0.10072644 1.7123575e-18
3.1155393e-18 0.10072644 2.1880123e-18
3.1155393e-18 0.10072644 2.6636672e-18
3.1155393e-18 0.10072644 3.139322e-18
-5.4419742e-19 -0.015813042 -2.1933432e-19
-5.4419742e-19 -0.015813042 -3.0210199e-19
-5.4419742e-19 -0.015813042 -3.8486966e-19
-5.4419742e-19 -0.015813042 -4.6763733e-19
-5.4419742e-19 -0.015813042 -5.50405e-19
3.5657592e-20 -0.031806099 1.4587197e-20
3.5657592e-20 -0.031806099 1.9989862e-20
3.5657592e-20 -0.031806099 2.5392528e-20
3.5657592e-20 -0.031806099 3.0795193e-20
3.5657592e-20 -0.031806099 3.6197858e-20
VECTORS q double
1 -1.785422e-12 2.0826997e-27
1 -1.785422e-12 2.9157557e-27
1 -1.785422e-12 3.7488002e-27
1 -1.785422e-12 4.581918e-27
1 -1.785422e-12 5.4151438e-27
1 -4.5352416e-13 2.1352789e-28
1 -4.5352416e-13 2.9730751e-28
1 -4.5352416e-13 3.809786e-28
1 -4.5352416e-13 4.6480017e-28
1 -4.5352416e-13 5.4853655e-28
1 -1.5171688e-12 1.6196896e-27
1 -1.5171688e-12 2.2426389e-27
1 -1.5171688e-12 2.8655446e-27
1 -1.5171688e-12 3.4885789e-27
1 -1.5171688e-12 4.1117679e-27
1 4.8756183e-13 1.0289426e-28
1 4.8756183e-13 1.4164944e-28
1 4.8756183e-13 1.805716e-28
1 4.8756183e-13 2.19422e-28
1 4.8756183e-13 2.5817673e-28
1 8.50918e-14 -1.2801496e-30
1 8.50918e-14 -1.8121062e-30
1 8.50918e-14 -2.2444674e-30
1 8.50918e-14 -2.7635107e-30
1 8.50918e-14 -3.254547e-30
1 -2.4995908e-12 2.9157992e-27
1 -2.4995908e-12 4.0820903e-27
1 -2.4995908e-12 5.2486951e-27
1 -2.4995908e-12 6.4149217e-27
1 -2.4995908e-12 7.5814306e-27
1 -6.3313769e-13 2.9806282e-28
1 -6.3313769e-13 4.1502065e-28
1 -6.3313769e-13 5.3183798e-28
1 -6.3313769e-13 6.4881582e-28
1 -6.3313769e-13 7.6571214e-28
1 -2.1121369e-12 2.2549727e-27
1 -2.1121369e-12 3.1223163e-27
1 -2.1121369e-12 3.9895035e-27
1 -2.1121369e-12 4.8568722e-27
1 -2.1121369e-12 5.7243495e-27
1 6.7690623e-13 1.4291967e-28
1 6.7690623e-13 1.9675626e-28
1 6.7690623e-13 2.5082934e-28
1 6.7690623e-13 3.0478755e-28
1 6.7690623e-13 3.5860398e-28
1 1.1781941e-13 -1.7871608e-30
1 1.1781941e-13 -2.5268599e-30
1 1.1781941e-13 -3.122388e-30
1 1.1781941e-13 -3.8495932e-30
1 1.1781941e-13 -4.5391473e-30
1 -3.2137597e-12 3.7489188e-27
1 -3.2137597e-12 5.2481038e-27
1 -3.2137597e-12 6.7479434e-27
1 -3.2137597e-12 8.2475887e-27
1 -3.2137597e-12 9.7473546e-27
1 -8.1275122e-13 3.8265042e-28
1 -8.1275122e-13 5.3279525e-28
1 -8.1275122e-13 6.8273476e-28
1 -8.1275122e-13 8.3293153e-28
1 -8.1275122e-13 9.8299492e-28
1 -2.7071051e-12 2.8902489e-27
1 -2.7071051e-12 4.0019323e-27
1 -2.7071051e-12 5.1133953e-27
1 -2.7071051e-12 6.2252362e-27
1 -2.7071051e-12 7.3372109e-27
1 8.6625063e-13 1.8283497e-28
1 8.6625063e-13 2.5170344e-28
1 8.6625063e-13 3.2086349e-28
1 8.6625063e-13 3.8990421e-28
1 8.6625063e-13 4.5876146e-28
1 1.5054703e-13 -2.2518998e-30
1 1.5054703e-13 -3.1860754e-30
1 1.5054703e-13 -3.9442443e-30
1 1.5054703e-13 -4.861217e-30
1 1.5054703e-13 -5.7242054e-30
1 -3.9279285e-12 4.5819562e-27
1 -3.9279285e-12 6.4145236e-27
1 -3.9279285e-12 8.247398e-27
1 -3.9279285e-12 1.0080267e-26
1 -3.9279285e-12 1.1913354e-26
1 -9.9236475e-13 4.6715083e-28
1 -9.9236475e-13 6.5045099e-28
1 -9.9236475e-13 8.335032e-28
1 -9.9236475e-13 1.0168635e-27
1 -9.9236475e-13 1.2000814e-27
1 -3.3020733e-12 3.5257155e-27
1 -3.3020733e-12 4.8817992e-27
1 -3.3020733e-12 6.2376288e-27
1 -3.3020733e-12 7.5937619e-27
1 -3.3020733e-12 8.9503518e-27
1 1.055595e-12 2.2287423e-28
1 1.055595e-12 3.0681956e-28
1 1.055595e-12 3.9113251e-28
1 1.055595e-12 4.7528017e-28
1 1.055595e-12 5.5921474e-28
1 1.8327465e-13 -2.7565925e-30
1 1.8327465e-13 -3.9000099e-30
1 1.8327465e-13 -4.8247245e-30
1 1.8327465e-13 -5.9471184e-30
1 1.8327465e-13 -7.0009824e-30
1 -4.6420973e-12 5.414896e-27
1 -4.6420973e-12 7.5805855e-27
1 -4.6420973e-12 9.7466747e-27
1 -4.6420973e-12 1.1912745e-26
1 -4.6420973e-12 1.4079111e-26
1 -1.1719783e-12 5.5174098e-28
1 -1.1719783e-12 7.6822743e-28
1 -1.1719783e-12 9.8442897e-28
1 -1.1719783e-12 1.2010075e-27
1 -1.1719783e-12 1.4173942e-27
1 -3.8970414e-12 4.1602727e-27
1 -3.8970414e-12 5.7604494e-27
1 -3.8970414e-12 7.3602875e-27
1 -3.8970414e-12 8.9610263e-27
1 -3.8970414e-12 1.056131e-26
1 1.2449394e-12 2.6285126e-28
1 1.2449394e-12 3.6188637e-28
1 1.2449394e-12 4.6129759e-28
1 1.2449394e-12 5.605441e-28
1 1.2449394e-12 6.5955402e-28
1 2.1600226e-13 -3.2006414e-30
1 2.1600226e-13 -4.5272312e-30
1 2.1600226e-13 -5.605872e-30
1 2.1600226e-13 -6.9073416e-30
1 2.1600226e-13 -8.1352157e-30
