# vtk DataFile Version 4.0
hesp visualization file
ASCII
DATASET UNSTRUCTURED_GRID
POINTS 125 double
0.5 0.32865467 0.5
0.5 0.32865467 0.7
0.5 0.32865467 0.9
0.5 0.32865467 1.1
0.5 0.32865467 1.3
0.505 0.31961457 0.51
0.505 0.31961457 0.71
0.505 0.31961457 0.91
0.505 0.31961457 1.11
0.505 0.31961457 1.31
0.51 0.20602713 0.52
0.51 0.20602713 0.72
0.51 0.20602713 0.92
0.51 0.20602713 1.12
0.51 0.20602713 1.32
0.515 0.37997254 0.53
0.515 0.37997254 0.73
0.515 0.37997254 0.93
0.515 0.37997254 1.13
0.515 0.37997254 1.33
0.52 0.38917543 0.54
0.52 0.38917543 0.74
0.52 0.38917543 0.94
0.52 0.38917543 1.14
0.52 0.38917543 1.34
0.7 0.32865467 0.5
0.7 0.32865467 0.7
0.7 0.32865467 0.9
0.7 0.32865467 1.1
0.7 0.32865467 1.3
0.705 0.31961457 0.51
0.705 0.31961457 0.71
0.705 0.31961457 0.91
0.705 0.31961457 1.11
0.705 0.31961457 1.31
0.71 0.20602713 0.52
0.71 0.20602713 0.72
0.71 0.20602713 0.92
0.71 0.20602713 1.12
0.71 0.20602713 1.32
0.715 0.37997254 0.53
0.715 0.37997254 0.73
0.715 0.37997254 0.93
0.715 0.37997254 1.13
0.715 0.37997254 1.33
0.72 0.38917543 0.54
0.72 0.38917543 0.74
0.72 0.38917543 0.94
0.72 0.38917543 1.14
0.72 0.38917543 1.34
0.9 0.32865467 0.5
0.9 0.32865467 0.7
0.9 0.32865467 0.9
0.9 0.32865467 1.1
0.9 0.32865467 1.3
0.905 0.31961457 0.51
0.905 0.31961457 0.71
0.905 0.31961457 0.91
0.905 0.31961457 1.11
0.905 0.31961457 1.31
0.91 0.20602713 0.52
0.91 0.20602713 0.72
0.91 0.20602713 0.92
0.91 0.20602713 1.12
0.91 0.20602713 1.32
0.915 0.37997254 0.53
0.915 0.37997254 0.73
0.915 0.37997254 0.93
0.915 0.37997254 1.13
0.915 0.37997254 1.33
0.92 0.38917543 0.54
0.92 0.38917543 0.74
0.92 0.38917543 0.94
0.92 0.38917543 1.14
0.92 0.38917543 1.34
1.1 0.32865467 0.5
1.1 0.32865467 0.7
1.1 0.32865467 0.9
1.1 0.32865467 1.1
1.1 0.32865467 1.3
1.105 0.31961457 0.51
1.105 0.31961457 0.71
1.105 0.31961457 0.91
1.105 0.31961457 1.11
1.105 0.31961457 1.31
1.11 0.20602713 0.52
1.11 0.20602713 0.72
1.11 0.20602713 0.92
1.11 0.20602713 1.12
1.11 0.20602713 1.32
1.115 0.37997254 0.53
1.115 0.37997254 0.73
1.115 0.37997254 0.93
1.115 0.37997254 1.13
1.115 0.37997254 1.33
1.12 0.38917543 0.54
1.12 0.38917543 0.74
1.12 0.38917543 0.94
1.12 0.38917543 1.14
1.12 0.38917543 1.34
1.3 0.32865467 0.5
1.3 0.32865467 0.7
1.3 0.32865467 0.9
1.3 0.32865467 1.1
1.3 0.32865467 1.3
1.305 0.31961457 0.51
1.305 0.31961457 0.71
1.305 0.31961457 0.91
1.305 0.31961457 1.11
1.305 0.31961457 1.31
1.31 0.20602713 0.52
1.31 0.20602713 0.72
1.31 0.20602713 0.92
1.31 0.20602713 1.12
1.31 0.20602713 1.32
1.315 0.37997254 0.53
1.315 0.37997254 0.73
1.315 0.37997254 0.93
1.315 0.37997254 1.13
1.315 0.37997254 1.33
1.32 0.38917543 0.54
1.32 0.38917543 0.74
1.32 0.38917543 0.94
1.32 0.38917543 1.14
1.32 0.38917543 1.34
CELLS 0 0
CELL_TYPES 0
POINT_DATA 125
SCALARS m double
LOOKUP_TABLE default
1
1
1
1
1
1
1
1
1
1
1
1
1
1
1
1
1
1
1
1
1
1
1
1
1
1
1
1
1
1
1
1
1
1
1
1
1
1
1
1
1
1
1
1
1
1
1
1
1
1
1
1
1
1
1
1
1
1
1
1
1
1
1
1
1
1
1
1
1
1
1
1
1
1
1
1
1
1
1
1
1
1
1
1
1
1
1
1
1
1
1
1
1
1
1
1
1
1
1
1
1
1
1
1
1
1
1
1
1
1
1
1
1
1
1
1
1
1
1
1
1
1
1
1
1
SCALARS r double
LOOKUP_TABLE default
0.1
0.1
0.1
0.1
0.1
0.1
0.1
0.1
0.1
0.1
0.1
0.1
0.1
0.1
0.1
0.1
0.1
0.1
0.1
0.1
0.1
0.1
0.1
0.1
0.1
0.1
0.1
0.1
0.1
0.1
0.1
0.1
0.1
0.1
0.1
0.1
0.1
0.1
0.1
0.1
0.1
0.1
0.1
0.1
0.1
0.1
0.1
0.1
0.1
0.1
0.1
0.1
0.1
0.1
0.1
0.1
0.1
0.1
0.1
0.1
0.1
0.1
0.1
0.1
0.1
0.1
0.1
0.1
0.1
0.1
0.1
0.1
0.1
0.1
0.1
0.1
0.1
0.1
0.1
0.1
0.1
0.1
0.1
0.1
0.1
0.1
0.1
0.1
0.1
0.1
0.1
0.1
0.1
0.1
0.1
0.1
0.1
0.1
0.1
0.1
0.1
0.1
0.1
0.1
0.1
0.1
0.1
0.1
0.1
0.1
0.1
0.1
0.1
0.1
0.1
0.1
0.1
0.1
0.1
0.1
0.1
0.1
0.1
0.1
0.1
VECTORS v double
4.9689238e-20 0.42157726 4.9689238e-20
4.9689238e-20 0.42157726 6.9564934e-20
4.9689238e-20 0.42157726 8.9440629e-20
4.9689238e-20 0.42157726 1.0931632e-19
4.9689238e-20 0.42157726 1.2919202e-19
0 -0.17596186 0
0 -0.17596186 0
0 -0.17596186 0
0 -0.17596186 0
0 -0.17596186 0
3.1435558e-20 0.10644442 3.2051941e-20
3.1435558e-20 0.10644442 4.4379611e-20
3.1435558e-20 0.10644442 5.670728e-20
3.1435558e-20 0.10644442 6.903495e-20
3.1435558e-20 0.10644442 8.136262e-20
-2.1590944e-20 -0.076927962 -2.2219806e-20
-2.1590944e-20 -0.076927962 -3.0604638e-20
-2.1590944e-20 -0.076927962 -3.8989471e-20
-2.1590944e-20 -0.076927962 -4.7374303e-20
-2.1590944e-20 -0.076927962 -5.5759136e-20
0 0.043061081 0
0 0.043061081 0
0 0.043061081 0
0 0.043061081 0
0 0.043061081 0
6.9564934e-20 0.42157726 4.9689238e-20
6.9564934e-20 0.42157726 6.9564934e-20
6.9564934e-20 0.42157726 8.9440629e-20
6.9564934e-20 0.42157726 1.0931632e-19
6.9564934e-20 0.42157726 1.2919202e-19
0 -0.17596186 0
0 -0.17596186 0
0 -0.17596186 0
0 -0.17596186 0
0 -0.17596186 0
4.3763227e-20 0.10644442 3.2051941e-20
4.3763227e-20 0.10644442 4.4379611e-20
4.3763227e-20 0.10644442 5.670728e-20
4.3763227e-20 0.10644442 6.903495e-20
4.3763227e-20 0.10644442 8.136262e-20
-2.9975776e-20 -0.076927962 -2.2219806e-20
-2.9975776e-20 -0.076927962 -3.0604638e-20
-2.9975776e-20 -0.076927962 -3.8989471e-20
-2.9975776e-20 -0.076927962 -4.7374303e-20
-2.9975776e-20 -0.076927962 -5.5759136e-20
0 0.043061081 0
0 0.043061081 0
0 0.043061081 0
0 0.043061081 0
0 0.043061081 0
8.9440629e-20 0.42157726 4.9689238e-20
8.9440629e-20 0.42157726 6.9564934e-20
8.9440629e-20 0.42157726 8.9440629e-20
8.9440629e-20 0.42157726 1.0931632e-19
8.9440629e-20 0.42157726 1.2919202e-19
0 -0.17596186 0
0 -0.17596186 0
0 -0.17596186 0
0 -0.17596186 0
0 -0.17596186 0
5.6090897e-20 0.10644442 3.2051941e-20
5.6090897e-20 0.10644442 4.4379611e-20
5.6090897e-20 0.10644442 5.670728e-20
5.6090897e-20 0.10644442 6.903495e-20
5.6090897e-20 0.10644442 8.136262e-20
-3.8360608e-20 -0.076927962 -2.2219806e-20
-3.8360608e-20 -0.076927962 -3.0604638e-20
-3.8360608e-20 -0.076927962 -3.8989471e-20
-3.8360608e-20 -0.076927962 -4.7374303e-20
-3.8360608e-20 -0.076927962 -5.5759136e-20
0 0.043061081 0
0 0.043061081 0
0 0.043061081 0
0 0.043061081 0
0 0.043061081 0
1.0931632e-19 0.42157726 4.9689238e-20
1.0931632e-19 0.42157726 6.9564934e-20
1.0931632e-19 0.42157726 8.9440629e-20
1.0931632e-19 0.42157726 1.0931632e-19
1.0931632e-19 0.42157726 1.2919202e-19
0 -0.17596186 0
0 -0.17596186 0
0 -0.17596186 0
0 -0.17596186 0
0 -0.17596186 0
6.8418566e-20 0.10644442 3.2051941e-20
6.8418566e-20 0.10644442 4.4379611e-20
6.8418566e-20 0.10644442 5.670728e-20
6.8418566e-20 0.10644442 6.903495e-20
6.8418566e-20 0.10644442 8.136262e-20
-4.6745441e-20 -0.076927962 -2.2219806e-20
-4.6745441e-20 -0.076927962 -3.0604638e-20
-4.6745441e-20 -0.076927962 -3.8989471e-20
-4.6745441e-20 -0.076927962 -4.7374303e-20
-4.6745441e-20 -0.076927962 -5.5759136e-20
0 0.043061081 0
0 0.043061081 0
0 0.043061081 0
0 0.043061081 0
0 0.043061081 0
1.2919202e-19 0.42157726 4.9689238e-20
1.2919202e-19 0.42157726 6.9564934e-20
1.2919202e-19 0.42157726 8.9440629e-20
1.2919202e-19 0.42157726 1.0931632e-19
1.2919202e-19 0.42157726 1.2919202e-19
0 -0.17596186 0
0 -0.17596186 0
0 -0.17596186 0
0 -0.17596186 0
0 -0.17596186 0
8.0746236e-20 0.10644442 3.2051941e-20
8.0746236e-20 0.10644442 4.4379611e-20
8.0746236e-20 0.10644442 5.670728e-20
8.0746236e-20 0.10644442 6.903495e-20
8.0746236e-20 0.10644442 8.136262e-20
-5.5130273e-20 -0.076927962 -2.2219806e-20
-5.5130273e-20 -0.076927962 -3.0604638e-20
-5.5130273e-20 -0.076927962 -3.8989471e-20
-5.5130273e-20 -0.076927962 -4.7374303e-20
-5.5130273e-20 -0.076927962 -5.5759136e-20
0 0.043061081 0
0 0.043061081 0
0 0.043061081 0
0 0.043061081 0
0 0.043061081 0
VECTORS q double
1 -2.1566722e-15 3.8609118e-32
1 -2.1566722e-15 5.401846e-32
1 -2.1566722e-15 6.9061573e-32
1 -2.1566722e-15 8.4938855e-32
1 -2.1566722e-15 9.9651251e-32
1 0 0
1 0 0
1 0 0
1 0 0
1 0 0
1 -3.1022173e-15 8.250238e-32
1 -3.1022173e-15 1.142749e-31
1 -3.1022173e-15 1.4568668e-31
1 -3.1022173e-15 1.7772324e-31
1 -3.1022173e-15 2.096402e-31
1 7.7976748e-15 2.6194302e-31
1 7.7976748e-15 3.6050379e-31
1 7.7976748e-15 4.5978945e-31
1 7.7976748e-15 5.5846539e-31
1 7.7976748e-15 6.5678005e-31
1 2.4694691e-16 1.0821431e-33
1 2.4694691e-16 1.4829368e-33
1 2.4694691e-16 1.8837305e-33
1 2.4694691e-16 2.2845242e-33
1 2.4694691e-16 2.685318e-33
1 -3.0193411e-15 5.4200821e-32
1 -3.0193411e-15 7.58896e-32
1 -3.0193411e-15 9.6558176e-32
1 -3.0193411e-15 1.1887824e-31
1 -3.0193411e-15 1.3954627e-31
1 0 0
1 0 0
1 0 0
1 0 0
1 0 0
1 -4.318773e-15 1.1490447e-31
1 -4.318773e-15 1.5912635e-31
1 -4.318773e-15 2.0292235e-31
1 -4.318773e-15 2.4782702e-31
1 -4.318773e-15 2.9210061e-31
1 1.0825898e-14 3.6366485e-31
1 1.0825898e-14 5.0052833e-31
1 1.0825898e-14 6.3828937e-31
1 1.0825898e-14 7.7553627e-31
1 1.0825898e-14 9.1215688e-31
1 3.4192649e-16 1.4983519e-33
1 3.4192649e-16 2.0532971e-33
1 3.4192649e-16 2.6082422e-33
1 3.4192649e-16 3.1631874e-33
1 3.4192649e-16 3.7181326e-33
1 -3.88201e-15 6.9828635e-32
1 -3.88201e-15 9.7820203e-32
1 -3.88201e-15 1.2503556e-31
1 -3.88201e-15 1.5375796e-31
1 -3.88201e-15 1.8027619e-31
1 0 0
1 0 0
1 0 0
1 0 0
1 0 0
1 -5.5353288e-15 1.4776242e-31
1 -5.5353288e-15 2.046511e-31
1 -5.5353288e-15 2.6083441e-31
1 -5.5353288e-15 3.1857213e-31
1 -5.5353288e-15 3.7567343e-31
1 1.3854121e-14 4.6522843e-31
1 1.3854121e-14 6.4032938e-31
1 1.3854121e-14 8.1658819e-31
1 1.3854121e-14 9.923224e-31
1 1.3854121e-14 1.166843e-30
1 4.3690607e-16 1.9145608e-33
1 4.3690607e-16 2.6236574e-33
1 4.3690607e-16 3.332754e-33
1 4.3690607e-16 4.0418506e-33
1 4.3690607e-16 4.7509472e-33
1 -4.7446788e-15 8.4802837e-32
1 -4.7446788e-15 1.1877556e-31
1 -4.7446788e-15 1.5192718e-31
1 -4.7446788e-15 1.8701243e-31
1 -4.7446788e-15 2.1887819e-31
1 0 0
1 0 0
1 0 0
1 0 0
1 0 0
1 -6.7518846e-15 1.7977393e-31
1 -6.7518846e-15 2.4901172e-31
1 -6.7518846e-15 3.1764676e-31
1 -6.7518846e-15 3.875608e-31
1 -6.7518846e-15 4.5737137e-31
1 1.6882345e-14 5.6720684e-31
1 1.6882345e-14 7.8060291e-31
1 1.6882345e-14 9.9566139e-31
1 1.6882345e-14 1.2095998e-30
1 1.6882345e-14 1.4224979e-30
1 5.3188565e-16 2.3307697e-33
1 5.3188565e-16 3.1940177e-33
1 5.3188565e-16 4.0572657e-33
1 5.3188565e-16 4.9205137e-33
1 5.3188565e-16 5.7837618e-33
1 -5.6073477e-15 1.0116852e-31
1 -5.6073477e-15 1.416477e-31
1 -5.6073477e-15 1.8067299e-31
1 -5.6073477e-15 2.2257609e-31
1 -5.6073477e-15 2.6181016e-31
1 0 0
1 0 0
1 0 0
1 0 0
1 0 0
1 -7.9684404e-15 2.1257257e-31
1 -7.9684404e-15 2.946972e-31
1 -7.9684404e-15 3.7568227e-31
1 -7.9684404e-15 4.5838142e-31
1 -7.9684404e-15 5.4062642e-31
1 1.9910568e-14 6.6857024e-31
1 1.9910568e-14 9.2039001e-31
1 1.9910568e-14 1.173537e-30
1 1.9910568e-14 1.4258929e-30
1 1.9910568e-14 1.6769702e-30
1 6.2686523e-16 2.7469785e-33
1 6.2686523e-16 3.764378e-33
1 6.2686523e-16 4.7817774e-33
1 6.2686523e-16 5.7991769e-33
1 6.2686523e-16 6.8165764e-33
