# vtk DataFile Version 4.0
hesp visualization file
ASCII
DATASET UNSTRUCTURED_GRID
POINTS 125 double
0.5 0.21082045 0.5
0.5 0.21082045 0.7
0.5 0.21082045 0.9
0.5 0.21082045 1.1
0.5 0.21082045 1.3
0.505 0.23785707 0.51
0.505 0.23785707 0.71
0.505 0.23785707 0.91
0.505 0.23785707 1.11
0.505 0.23785707 1.31
0.51 0.25810124 0.52
0.51 0.25810124 0.72
0.51 0.25810124 0.92
0.51 0.25810124 1.12
0.51 0.25810124 1.32
0.515 0.26952604 0.53
0.515 0.26952604 0.73
0.515 0.26952604 0.93
0.515 0.26952604 1.13
0.515 0.26952604 1.33
0.52 0.21265733 0.54
0.52 0.21265733 0.74
0.52 0.21265733 0.94
0.52 0.21265733 1.14
0.52 0.21265733 1.34
0.7 0.21082045 0.5
0.7 0.21082045 0.7
0.7 0.21082045 0.9
0.7 0.21082045 1.1
0.7 0.21082045 1.3
0.705 0.23785707 0.51
0.705 0.23785707 0.71
0.705 0.23785707 0.91
0.705 0.23785707 1.11
0.705 0.23785707 1.31
0.71 0.25810124 0.52
0.71 0.25810124 0.72
0.71 0.25810124 0.92
0.71 0.25810124 1.12
0.71 0.25810124 1.32
0.715 0.26952604 0.53
0.715 0.26952604 0.73
0.715 0.26952604 0.93
0.715 0.26952604 1.13
0.715 0.26952604 1.33
0.72 0.21265733 0.54
0.72 0.21265733 0.74
0.72 0.21265733 0.94
0.72 0.21265733 1.14
0.72 0.21265733 1.34
0.9 0.21082045 0.5
0.9 0.21082045 0.7
0.9 0.21082045 0.9
0.9 0.21082045 1.1
0.9 0.21082045 1.3
0.905 0.23785707 0.51
0.905 0.23785707 0.71
0.905 0.23785707 0.91
0.905 0.23785707 1.11
0.905 0.23785707 1.31
0.91 0.25810124 0.52
0.91 0.25810124 0.72
0.91 0.25810124 0.92
0.91 0.25810124 1.12
0.91 0.25810124 1.32
0.915 0.26952604 0.53
0.915 0.26952604 0.73
0.915 0.26952604 0.93
0.915 0.26952604 1.13
0.915 0.26952604 1.33
0.92 0.21265733 0.54
0.92 0.21265733 0.74
0.92 0.21265733 0.94
0.92 0.21265733 1.14
0.92 0.21265733 1.34
1.1 0.21082045 0.5
1.1 0.21082045 0.7
1.1 0.21082045 0.9
1.1 0.21082045 1.1
1.1 0.21082045 1.3
1.105 0.23785707 0.51
1.105 0.23785707 0.71
1.105 0.23785707 0.91
1.105 0.23785707 1.11
1.105 0.23785707 1.31
1.11 0.25810124 0.52
1.11 0.25810124 0.72
1.11 0.25810124 0.92
1.11 0.25810124 1.12
1.11 0.25810124 1.32
1.115 0.26952604 0.53
1.115 0.26952604 0.73
1.115 0.26952604 0.93
1.115 0.26952604 1.13
1.115 0.26952604 1.33
1.12 0.21265733 0.54
1.12 0.21265733 0.74
1.12 0.21265733 0.94
1.12 0.21265733 1.14
1.12 0.21265733 1.34
1.3 0.21082045 0.5
1.3 0.21082045 0.7
1.3 0.21082045 0.9
1.3 0.21082045 1.1
1.3 0.21082045 1.3
1.305 0.23785707 0.51
1.305 0.23785707 0.71
1.305 0.23785707 0.91
1.305 0.23785707 1.11
1.305 0.23785707 1.31
1.31 0.25810124 0.52
1.31 0.25810124 0.72
1.31 0.25810124 0.92
1.31 0.25810124 1.12
1.31 0.25810124 1.32
1.315 0.26952604 0.53
1.315 0.26952604 0.73
1.315 0.26952604 0.93
1.315 0.26952604 1.13
1.315 0.26952604 1.33
1.32 0.21265733 0.54
1.32 0.21265733 0.74
1.32 0.21265733 0.94
1.32 0.21265733 1.14
1.32 0.21265733 1.34
CELLS 0 0
CELL_TYPES 0
POINT_DATA 125
SCALARS m double
LOOKUP_TABLE default
1
1
1
1
1
1
1
1
1
1
1
1
1
1
1
1
1
1
1
1
1
1
1
1
1
1
1
1
1
1
1
1
1
1
1
1
1
1
1
1
1
1
1
1
1
1
1
1
1
1
1
1
1
1
1
1
1
1
1
1
1
1
1
1
1
1
1
1
1
1
1
1
1
1
1
1
1
1
1
1
1
1
1
1
1
1
1
1
1
1
1
1
1
1
1
1
1
1
1
1
1
1
1
1
1
1
1
1
1
1
1
1
1
1
1
1
1
1
1
1
1
1
1
1
1
SCALARS r double
LOOKUP_TABLE default
0.1
0.1
0.1
0.1
0.1
0.1
0.1
0.1
0.1
0.1
0.1
0.1
0.1
0.1
0.1
0.1
0.1
0.1
0.1
0.1
0.1
0.1
0.1
0.1
0.1
0.1
0.1
0.1
0.1
0.1
0.1
0.1
0.1
0.1
0.1
0.1
0.1
0.1
0.1
0.1
0.1
0.1
0.1
0.1
0.1
0.1
0.1
0.1
0.1
0.1
0.1
0.1
0.1
0.1
0.1
0.1
0.1
0.1
0.1
0.1
0.1
0.1
0.1
0.1
0.1
0.1
0.1
0.1
0.1
0.1
0.1
0.1
0.1
0.1
0.1
0.1
0.1
0.1
0.1
0.1
0.1
0.1
0.1
0.1
0.1
0.1
0.1
0.1
0.1
0.1
0.1
0.1
0.1
0.1
0.1
0.1
0.1
0.1
0.1
0.1
0.1
0.1
0.1
0.1
0.1
0.1
0.1
0.1
0.1
0.1
0.1
0.1
0.1
0.1
0.1
0.1
0.1
0.1
0.1
0.1
0.1
0.1
0.1
0.1
0.1
VECTORS v double
1.6586715e-18 0.38218165 1.6586715e-18
1.6586715e-18 0.38218165 2.3221401e-18
1.6586715e-18 0.38218165 2.9856087e-18
1.6586715e-18 0.38218165 3.6490773e-18
1.6586715e-18 0.38218165 4.3125459e-18
7.3759961e-19 0.46144295 7.4490258e-19
7.3759961e-19 0.46144295 1.0370212e-18
7.3759961e-19 0.46144295 1.3291399e-18
7.3759961e-19 0.46144295 1.6212586e-18
7.3759961e-19 0.46144295 1.9133772e-18
1.5206319e-18 0.10016565 1.5504482e-18
1.5206319e-18 0.10016565 2.1467745e-18
1.5206319e-18 0.10016565 2.7431007e-18
1.5206319e-18 0.10016565 3.3394269e-18
1.5206319e-18 0.10016565 3.9357532e-18
-2.0004258e-19 -0.052941016 -2.0586907e-19
-2.0004258e-19 -0.052941016 -2.835555e-19
-2.0004258e-19 -0.052941016 -3.6124194e-19
-2.0004258e-19 -0.052941016 -4.3892838e-19
-2.0004258e-19 -0.052941016 -5.1661482e-19
8.3739661e-20 -0.18534265 8.6960417e-20
8.3739661e-20 -0.18534265 1.1916798e-19
8.3739661e-20 -0.18534265 1.5137554e-19
8.3739661e-20 -0.18534265 1.835831e-19
8.3739661e-20 -0.18534265 2.1579067e-19
2.3221401e-18 0.38218165 1.6586715e-18
2.3221401e-18 0.38218165 2.3221401e-18
2.3221401e-18 0.38218165 2.9856087e-18
2.3221401e-18 0.38218165 3.6490773e-18
2.3221401e-18 0.38218165 4.3125459e-18
1.0297183e-18 0.46144295 7.4490258e-19
1.0297183e-18 0.46144295 1.0370212e-18
1.0297183e-18 0.46144295 1.3291399e-18
1.0297183e-18 0.46144295 1.6212586e-18
1.0297183e-18 0.46144295 1.9133772e-18
2.1169581e-18 0.10016565 1.5504482e-18
2.1169581e-18 0.10016565 2.1467745e-18
2.1169581e-18 0.10016565 2.7431007e-18
2.1169581e-18 0.10016565 3.3394269e-18
2.1169581e-18 0.10016565 3.9357532e-18
-2.7772902e-19 -0.052941016 -2.0586907e-19
-2.7772902e-19 -0.052941016 -2.835555e-19
-2.7772902e-19 -0.052941016 -3.6124194e-19
-2.7772902e-19 -0.052941016 -4.3892838e-19
-2.7772902e-19 -0.052941016 -5.1661482e-19
1.1594722e-19 -0.18534265 8.6960417e-20
1.1594722e-19 -0.18534265 1.1916798e-19
1.1594722e-19 -0.18534265 1.5137554e-19
1.1594722e-19 -0.18534265 1.835831e-19
1.1594722e-19 -0.18534265 2.1579067e-19
2.9856087e-18 0.38218165 1.6586715e-18
2.9856087e-18 0.38218165 2.3221401e-18
2.9856087e-18 0.38218165 2.9856087e-18
2.9856087e-18 0.38218165 3.6490773e-18
2.9856087e-18 0.38218165 4.3125459e-18
1.3218369e-18 0.46144295 7.4490258e-19
1.3218369e-18 0.46144295 1.0370212e-18
1.3218369e-18 0.46144295 1.3291399e-18
1.3218369e-18 0.46144295 1.6212586e-18
1.3218369e-18 0.46144295 1.9133772e-18
2.7132844e-18 0.10016565 1.5504482e-18
2.7132844e-18 0.10016565 2.1467745e-18
2.7132844e-18 0.10016565 2.7431007e-18
2.7132844e-18 0.10016565 3.3394269e-18
2.7132844e-18 0.10016565 3.9357532e-18
-3.5541546e-19 -0.052941016 -2.0586907e-19
-3.5541546e-19 -0.052941016 -2.835555e-19
-3.5541546e-19 -0.052941016 -3.6124194e-19
-3.5541546e-19 -0.052941016 -4.3892838e-19
-3.5541546e-19 -0.052941016 -5.1661482e-19
1.4815479e-19 -0.18534265 8.6960417e-20
1.4815479e-19 -0.18534265 1.1916798e-19
1.4815479e-19 -0.18534265 1.5137554e-19
1.4815479e-19 -0.18534265 1.835831e-19
1.4815479e-19 -0.18534265 2.1579067e-19
3.6490773e-18 0.38218165 1.6586715e-18
3.6490773e-18 0.38218165 2.3221401e-18
3.6490773e-18 0.38218165 2.9856087e-18
3.6490773e-18 0.38218165 3.6490773e-18
3.6490773e-18 0.38218165 4.3125459e-18
1.6139556e-18 0.46144295 7.4490258e-19
1.6139556e-18 0.46144295 1.0370212e-18
1.6139556e-18 0.46144295 1.3291399e-18
1.6139556e-18 0.46144295 1.6212586e-18
1.6139556e-18 0.46144295 1.9133772e-18
3.3096106e-18 0.10016565 1.5504482e-18
3.3096106e-18 0.10016565 2.1467745e-18
3.3096106e-18 0.10016565 2.7431007e-18
3.3096106e-18 0.10016565 3.3394269e-18
3.3096106e-18 0.10016565 3.9357532e-18
-4.331019e-19 -0.052941016 -2.0586907e-19
-4.331019e-19 -0.052941016 -2.835555e-19
-4.331019e-19 -0.052941016 -3.6124194e-19
-4.331019e-19 -0.052941016 -4.3892838e-19
-4.331019e-19 -0.052941016 -5.1661482e-19
1.8036235e-19 -0.18534265 8.6960417e-20
1.8036235e-19 -0.18534265 1.1916798e-19
1.8036235e-19 -0.18534265 1.5137554e-19
1.8036235e-19 -0.18534265 1.835831e-19
1.8036235e-19 -0.18534265 2.1579067e-19
4.3125459e-18 0.38218165 1.6586715e-18
4.3125459e-18 0.38218165 2.3221401e-18
4.3125459e-18 0.38218165 2.9856087e-18
4.3125459e-18 0.38218165 3.6490773e-18
4.3125459e-18 0.38218165 4.3125459e-18
1.9060743e-18 0.46144295 7.4490258e-19
1.9060743e-18 0.46144295 1.0370212e-18
1.9060743e-18 0.46144295 1.3291399e-18
1.9060743e-18 0.46144295 1.6212586e-18
1.9060743e-18 0.46144295 1.9133772e-18
3.9059369e-18 0.10016565 1.5504482e-18
3.9059369e-18 0.10016565 2.1467745e-18
3.9059369e-18 0.10016565 2.7431007e-18
3.9059369e-18 0.10016565 3.3394269e-18
3.9059369e-18 0.10016565 3.9357532e-18
-5.1078834e-19 -0.052941016 -2.0586907e-19
-5.1078834e-19 -0.052941016 -2.835555e-19
-5.1078834e-19 -0.052941016 -3.6124194e-19
-5.1078834e-19 -0.052941016 -4.3892838e-19
-5.1078834e-19 -0.052941016 -5.1661482e-19
2.1256991e-19 -0.18534265 8.6960417e-20
2.1256991e-19 -0.18534265 1.1916798e-19
2.1256991e-19 -0.18534265 1.5137554e-19
2.1256991e-19 -0.18534265 1.835831e-19
2.1256991e-19 -0.18534265 2.1579067e-19
VECTORS q double
1 -2.57347e-12 3.775184e-27
1 -2.57347e-12 5.2852065e-27
1 -2.57347e-12 6.7951585e-27
1 -2.57347e-12 8.3053239e-27
1 -2.57347e-12 9.8156297e-27
1 -7.8507786e-13 5.1232568e-28
1 -7.8507786e-13 7.1334222e-28
1 -7.8507786e-13 9.1411846e-28
1 -7.8507786e-13 1.1151856e-27
1 -7.8507786e-13 1.3160979e-27
1 -2.2287434e-12 3.0212511e-27
1 -2.2287434e-12 4.1832563e-27
1 -2.2287434e-12 5.3452852e-27
1 -2.2287434e-12 6.5073836e-27
1 -2.2287434e-12 7.6696711e-27
1 6.066293e-13 1.1736037e-28
1 6.066293e-13 1.6155734e-28
1 6.066293e-13 2.0596196e-28
1 6.066293e-13 2.5028396e-28
1 6.066293e-13 2.9448055e-28
1 5.688504e-14 -4.8096372e-30
1 5.688504e-14 -6.6710486e-30
1 5.688504e-14 -8.3953244e-30
1 5.688504e-14 -1.0235327e-29
1 5.688504e-14 -1.2041095e-29
1 -3.6028581e-12 5.2853017e-27
1 -3.6028581e-12 7.3993652e-27
1 -3.6028581e-12 9.5139165e-27
1 -3.6028581e-12 1.1627915e-26
1 -3.6028581e-12 1.374235e-26
1 -1.0959998e-12 7.1515917e-28
1 -1.0959998e-12 9.9577319e-28
1 -1.0959998e-12 1.276096e-27
1 -1.0959998e-12 1.5567046e-27
1 -1.0959998e-12 1.8371709e-27
1 -3.1027604e-12 4.206268e-27
1 -3.1027604e-12 5.8241207e-27
1 -3.1027604e-12 7.4418614e-27
1 -3.1027604e-12 9.0597304e-27
1 -3.1027604e-12 1.067768e-26
1 8.4221349e-13 1.6305514e-28
1 8.4221349e-13 2.2446779e-28
1 8.4221349e-13 2.8618001e-28
1 8.4221349e-13 3.4774686e-28
1 8.4221349e-13 4.0910909e-28
1 7.8763901e-14 -6.680471e-30
1 7.8763901e-14 -9.2633143e-30
1 7.8763901e-14 -1.1646435e-29
1 7.8763901e-14 -1.4209172e-29
1 7.8763901e-14 -1.6722603e-29
1 -4.6322461e-12 6.7955012e-27
1 -4.6322461e-12 9.5130022e-27
1 -4.6322461e-12 1.2231586e-26
1 -4.6322461e-12 1.4949966e-26
1 -4.6322461e-12 1.76685e-26
1 -1.4069217e-12 9.1810993e-28
1 -1.4069217e-12 1.2783548e-27
1 -1.4069217e-12 1.6381531e-27
1 -1.4069217e-12 1.9984572e-27
1 -1.4069217e-12 2.3584994e-27
1 -3.9767774e-12 5.3911794e-27
1 -3.9767774e-12 7.4647736e-27
1 -3.9767774e-12 9.5382078e-27
1 -3.9767774e-12 1.161198e-26
1 -3.9767774e-12 1.3685888e-26
1 1.0777977e-12 2.0855946e-28
1 1.0777977e-12 2.8710583e-28
1 1.0777977e-12 3.6601445e-28
1 1.0777977e-12 4.4478606e-28
1 1.0777977e-12 5.233194e-28
1 1.0064276e-13 -8.4850924e-30
1 1.0064276e-13 -1.176609e-29
1 1.0064276e-13 -1.4804755e-29
1 1.0064276e-13 -1.8059389e-29
1 1.0064276e-13 -2.1243197e-29
1 -5.6616341e-12 8.3054762e-27
1 -5.6616341e-12 1.1627238e-26
1 -5.6616341e-12 1.4949498e-26
1 -5.6616341e-12 1.8271889e-26
1 -5.6616341e-12 2.1594573e-26
1 -1.7178436e-12 1.1209035e-27
1 -1.7178436e-12 1.5607155e-27
1 -1.7178436e-12 1.9999933e-27
1 -1.7178436e-12 2.4398675e-27
1 -1.7178436e-12 2.8794634e-27
1 -4.8507944e-12 6.5765056e-27
1 -4.8507944e-12 9.1059692e-27
1 -4.8507944e-12 1.1635252e-26
1 -4.8507944e-12 1.4164694e-26
1 -4.8507944e-12 1.6694811e-26
1 1.3133819e-12 2.542654e-28
1 1.3133819e-12 3.5002022e-28
1 1.3133819e-12 4.4623946e-28
1 1.3133819e-12 5.4225528e-28
1 1.3133819e-12 6.3799017e-28
1 1.2252162e-13 -1.0356612e-29
1 1.2252162e-13 -1.4360798e-29
1 1.2252162e-13 -1.8066345e-29
1 1.2252162e-13 -2.2037261e-29
1 1.2252162e-13 -2.5921146e-29
1 -6.6910221e-12 9.8153261e-27
1 -6.6910221e-12 1.3740936e-26
1 -6.6910221e-12 1.7667175e-26
1 -6.6910221e-12 2.1593552e-26
1 -6.6910221e-12 2.5520317e-26
1 -2.0287656e-12 1.3238136e-27
1 -2.0287656e-12 1.8432143e-27
1 -2.0287656e-12 2.362034e-27
1 -2.0287656e-12 2.8815568e-27
1 -2.0287656e-12 3.4007226e-27
1 -5.7248114e-12 7.7601764e-27
1 -5.7248114e-12 1.0744942e-26
1 -5.7248114e-12 1.3729461e-26
1 -5.7248114e-12 1.6715103e-26
1 -5.7248114e-12 1.9699751e-26
1 1.5489661e-12 2.9987838e-28
1 1.5489661e-12 4.1284876e-28
1 1.5489661e-12 5.2628849e-28
1 1.5489661e-12 6.3953868e-28
1 1.5489661e-12 7.5248008e-28
1 1.4440049e-13 -1.2138776e-29
1 1.4440049e-13 -1.6831519e-29
1 1.4440049e-13 -2.1179769e-29
1 1.4440049e-13 -2.5830729e-29
1 1.4440049e-13 -3.0387917e-29
