# vtk DataFile Version 4.0
hesp visualization file
ASCII
DATASET UNSTRUCTURED_GRID
POINTS 125 double
0.5 0.25593384 0.5
0.5 0.25593384 0.7
0.5 0.25593384 0.9
0.5 0.25593384 1.1
0.5 0.25593384 1.3
0.505 0.23575154 0.51
0.505 0.23575154 0.71
0.505 0.23575154 0.91
0.505 0.23575154 1.11
0.505 0.23575154 1.31
0.51 0.21082036 0.52
0.51 0.21082036 0.72
0.51 0.21082036 0.92
0.51 0.21082036 1.12
0.51 0.21082036 1.32
0.515 0.20164716 0.53
0.515 0.20164716 0.73
0.515 0.20164716 0.93
0.515 0.20164716 1.13
0.515 0.20164716 1.33
0.52 0.24960635 0.54
0.52 0.24960635 0.74
0.52 0.24960635 0.94
0.52 0.24960635 1.14
0.52 0.24960635 1.34
0.7 0.25593384 0.5
0.7 0.25593384 0.7
0.7 0.25593384 0.9
0.7 0.25593384 1.1
0.7 0.25593384 1.3
0.705 0.23575154 0.51
0.705 0.23575154 0.71
0.705 0.23575154 0.91
0.705 0.23575154 1.11
0.705 0.23575154 1.31
0.71 0.21082036 0.52
0.71 0.21082036 0.72
0.71 0.21082036 0.92
0.71 0.21082036 1.12
0.71 0.21082036 1.32
0.715 0.20164716 0.53
0.715 0.20164716 0.73
0.715 0.20164716 0.93
0.715 0.20164716 1.13
0.715 0.20164716 1.33
0.72 0.24960635 0.54
0.72 0.24960635 0.74
0.72 0.24960635 0.94
0.72 0.24960635 1.14
0.72 0.24960635 1.34
0.9 0.25593384 0.5
0.9 0.25593384 0.7
0.9 0.25593384 0.9
0.9 0.25593384 1.1
0.9 0.25593384 1.3
0.905 0.23575154 0.51
0.905 0.23575154 0.71
0.905 0.23575154 0.91
0.905 0.23575154 1.11
0.905 0.23575154 1.31
0.91 0.21082036 0.52
0.91 0.21082036 0.72
0.91 0.21082036 0.92
0.91 0.21082036 1.12
0.91 0.21082036 1.32
0.915 0.20164716 0.53
0.915 0.20164716 0.73
0.915 0.20164716 0.93
0.915 0.20164716 1.13
0.915 0.20164716 1.33
0.92 0.24960635 0.54
0.92 0.24960635 0.74
0.92 0.24960635 0.94
0.92 0.24960635 1.14
0.92 0.24960635 1.34
1.1 0.25593384 0.5
1.1 0.25593384 0.7
1.1 0.25593384 0.9
1.1 0.25593384 1.1
1.1 0.25593384 1.3
1.105 0.23575154 0.51
1.105 0.23575154 0.71
1.105 0.23575154 0.91
1.105 0.23575154 1.11
1.105 0.23575154 1.31
1.11 0.21082036 0.52
1.11 0.21082036 0.72
1.11 0.21082036 0.92
1.11 0.21082036 1.12
1.11 0.21082036 1.32
1.115 0.20164716 0.53
1.115 0.20164716 0.73
1.115 0.20164716 0.93
1.115 0.20164716 1.13
1.115 0.20164716 1.33
1.12 0.24960635 0.54
1.12 0.24960635 0.74
1.12 0.24960635 0.94
1.12 0.24960635 1.14
1.12 0.24960635 1.34
1.3 0.25593384 0.5
1.3 0.25593384 0.7
1.3 0.25593384 0.9
1.3 0.25593384 1.1
1.3 0.25593384 1.3
1.305 0.23575154 0.51
1.305 0.23575154 0.71
1.305 0.23575154 0.91
1.305 0.23575154 1.11
1.305 0.23575154 1.31
1.31 0.21082036 0.52
1.31 0.21082036 0.72
1.31 0.21082036 0.92
1.31 0.21082036 1.12
1.31 0.21082036 1.32
1.315 0.20164716 0.53
1.315 0.20164716 0.73
1.315 0.20164716 0.93
1.315 0.20164716 1.13
1.315 0.20164716 1.33
1.32 0.24960635 0.54
1.32 0.24960635 0.74
1.32 0.24960635 0.94
1.32 0.24960635 1.14
1.32 0.24960635 1.34
CELLS 0 0
CELL_TYPES 0
POINT_DATA 125
SCALARS m double
LOOKUP_TABLE default
1
1
1
1
1
1
1
1
1
1
1
1
1
1
1
1
1
1
1
1
1
1
1
1
1
1
1
1
1
1
1
1
1
1
1
1
1
1
1
1
1
1
1
1
1
1
1
1
1
1
1
1
1
1
1
1
1
1
1
1
1
1
1
1
1
1
1
1
1
1
1
1
1
1
1
1
1
1
1
1
1
1
1
1
1
1
1
1
1
1
1
1
1
1
1
1
1
1
1
1
1
1
1
1
1
1
1
1
1
1
1
1
1
1
1
1
1
1
1
1
1
1
1
1
1
SCALARS r double
LOOKUP_TABLE default
0.1
0.1
0.1
0.1
0.1
0.1
0.1
0.1
0.1
0.1
0.1
0.1
0.1
0.1
0.1
0.1
0.1
0.1
0.1
0.1
0.1
0.1
0.1
0.1
0.1
0.1
0.1
0.1
0.1
0.1
0.1
0.1
0.1
0.1
0.1
0.1
0.1
0.1
0.1
0.1
0.1
0.1
0.1
0.1
0.1
0.1
0.1
0.1
0.1
0.1
0.1
0.1
0.1
0.1
0.1
0.1
0.1
0.1
0.1
0.1
0.1
0.1
0.1
0.1
0.1
0.1
0.1
0.1
0.1
0.1
0.1
0.1
0.1
0.1
0.1
0.1
0.1
0.1
0.1
0.1
0.1
0.1
0.1
0.1
0.1
0.1
0.1
0.1
0.1
0.1
0.1
0.1
0.1
0.1
0.1
0.1
0.1
0.1
0.1
0.1
0.1
0.1
0.1
0.1
0.1
0.1
0.1
0.1
0.1
0.1
0.1
0.1
0.1
0.1
0.1
0.1
0.1
0.1
0.1
0.1
0.1
0.1
0.1
0.1
0.1
VECTORS v double
4.9174658e-19 0.12134338 4.9174658e-19
4.9174658e-19 0.12134338 6.8844521e-19
4.9174658e-19 0.12134338 8.8514384e-19
4.9174658e-19 0.12134338 1.0818425e-18
4.9174658e-19 0.12134338 1.2785411e-18
6.2445322e-20 0.27118017 6.3063593e-20
6.2445322e-20 0.27118017 8.7794413e-20
6.2445322e-20 0.27118017 1.1252523e-19
6.2445322e-20 0.27118017 1.3725605e-19
6.2445322e-20 0.27118017 1.6198688e-19
3.904237e-19 -0.047296024 3.9807907e-19
3.904237e-19 -0.047296024 5.511864e-19
3.904237e-19 -0.047296024 7.0429373e-19
3.904237e-19 -0.047296024 8.5740107e-19
3.904237e-19 -0.047296024 1.0105084e-18
-1.3433669e-19 -0.35647851 -1.3824941e-19
-1.3433669e-19 -0.35647851 -1.9041899e-19
-1.3433669e-19 -0.35647851 -2.4258858e-19
-1.3433669e-19 -0.35647851 -2.9475817e-19
-1.3433669e-19 -0.35647851 -3.4692776e-19
-3.7579791e-20 0.19375104 -3.9025168e-20
-3.7579791e-20 0.19375104 -5.3478934e-20
-3.7579791e-20 0.19375104 -6.79327e-20
-3.7579791e-20 0.19375104 -8.2386466e-20
-3.7579791e-20 0.19375104 -9.6840232e-20
6.8844521e-19 0.12134338 4.9174658e-19
6.8844521e-19 0.12134338 6.8844521e-19
6.8844521e-19 0.12134338 8.8514384e-19
6.8844521e-19 0.12134338 1.0818425e-18
6.8844521e-19 0.12134338 1.2785411e-18
8.7176143e-20 0.27118017 6.3063593e-20
8.7176143e-20 0.27118017 8.7794413e-20
8.7176143e-20 0.27118017 1.1252523e-19
8.7176143e-20 0.27118017 1.3725605e-19
8.7176143e-20 0.27118017 1.6198688e-19
5.4353103e-19 -0.047296024 3.9807907e-19
5.4353103e-19 -0.047296024 5.511864e-19
5.4353103e-19 -0.047296024 7.0429373e-19
5.4353103e-19 -0.047296024 8.5740107e-19
5.4353103e-19 -0.047296024 1.0105084e-18
-1.8650628e-19 -0.35647851 -1.3824941e-19
-1.8650628e-19 -0.35647851 -1.9041899e-19
-1.8650628e-19 -0.35647851 -2.4258858e-19
-1.8650628e-19 -0.35647851 -2.9475817e-19
-1.8650628e-19 -0.35647851 -3.4692776e-19
-5.2033557e-20 0.19375104 -3.9025168e-20
-5.2033557e-20 0.19375104 -5.3478934e-20
-5.2033557e-20 0.19375104 -6.79327e-20
-5.2033557e-20 0.19375104 -8.2386466e-20
-5.2033557e-20 0.19375104 -9.6840232e-20
8.8514384e-19 0.12134338 4.9174658e-19
8.8514384e-19 0.12134338 6.8844521e-19
8.8514384e-19 0.12134338 8.8514384e-19
8.8514384e-19 0.12134338 1.0818425e-18
8.8514384e-19 0.12134338 1.2785411e-18
1.1190696e-19 0.27118017 6.3063593e-20
1.1190696e-19 0.27118017 8.7794413e-20
1.1190696e-19 0.27118017 1.1252523e-19
1.1190696e-19 0.27118017 1.3725605e-19
1.1190696e-19 0.27118017 1.6198688e-19
6.9663837e-19 -0.047296024 3.9807907e-19
6.9663837e-19 -0.047296024 5.511864e-19
6.9663837e-19 -0.047296024 7.0429373e-19
6.9663837e-19 -0.047296024 8.5740107e-19
6.9663837e-19 -0.047296024 1.0105084e-18
-2.3867586e-19 -0.35647851 -1.3824941e-19
-2.3867586e-19 -0.35647851 -1.9041899e-19
-2.3867586e-19 -0.35647851 -2.4258858e-19
-2.3867586e-19 -0.35647851 -2.9475817e-19
-2.3867586e-19 -0.35647851 -3.4692776e-19
-6.6487323e-20 0.19375104 -3.9025168e-20
-6.6487323e-20 0.19375104 -5.3478934e-20
-6.6487323e-20 0.19375104 -6.79327e-20
-6.6487323e-20 0.19375104 -8.2386466e-20
-6.6487323e-20 0.19375104 -9.6840232e-20
1.0818425e-18 0.12134338 4.9174658e-19
1.0818425e-18 0.12134338 6.8844521e-19
1.0818425e-18 0.12134338 8.8514384e-19
1.0818425e-18 0.12134338 1.0818425e-18
1.0818425e-18 0.12134338 1.2785411e-18
1.3663778e-19 0.27118017 6.3063593e-20
1.3663778e-19 0.27118017 8.7794413e-20
1.3663778e-19 0.27118017 1.1252523e-19
1.3663778e-19 0.27118017 1.3725605e-19
1.3663778e-19 0.27118017 1.6198688e-19
8.497457e-19 -0.047296024 3.9807907e-19
8.497457e-19 -0.047296024 5.511864e-19
8.497457e-19 -0.047296024 7.0429373e-19
8.497457e-19 -0.047296024 8.5740107e-19
8.497457e-19 -0.047296024 1.0105084e-18
-2.9084545e-19 -0.35647851 -1.3824941e-19
-2.9084545e-19 -0.35647851 -1.9041899e-19
-2.9084545e-19 -0.35647851 -2.4258858e-19
-2.9084545e-19 -0.35647851 -2.9475817e-19
-2.9084545e-19 -0.35647851 -3.4692776e-19
-8.0941089e-20 0.19375104 -3.9025168e-20
-8.0941089e-20 0.19375104 -5.3478934e-20
-8.0941089e-20 0.19375104 -6.79327e-20
-8.0941089e-20 0.19375104 -8.2386466e-20
-8.0941089e-20 0.19375104 -9.6840232e-20
1.2785411e-18 0.12134338 4.9174658e-19
1.2785411e-18 0.12134338 6.8844521e-19
1.2785411e-18 0.12134338 8.8514384e-19
1.2785411e-18 0.12134338 1.0818425e-18
1.2785411e-18 0.12134338 1.2785411e-18
1.613686e-19 0.27118017 6.3063593e-20
1.613686e-19 0.27118017 8.7794413e-20
1.613686e-19 0.27118017 1.1252523e-19
1.613686e-19 0.27118017 1.3725605e-19
1.613686e-19 0.27118017 1.6198688e-19
1.002853e-18 -0.047296024 3.9807907e-19
1.002853e-18 -0.047296024 5.511864e-19
1.002853e-18 -0.047296024 7.0429373e-19
1.002853e-18 -0.047296024 8.5740107e-19
1.002853e-18 -0.047296024 1.0105084e-18
-3.4301504e-19 -0.35647851 -1.3824941e-19
-3.4301504e-19 -0.35647851 -1.9041899e-19
-3.4301504e-19 -0.35647851 -2.4258858e-19
-3.4301504e-19 -0.35647851 -2.9475817e-19
-3.4301504e-19 -0.35647851 -3.4692776e-19
-9.5394855e-20 0.19375104 -3.9025168e-20
-9.5394855e-20 0.19375104 -5.3478934e-20
-9.5394855e-20 0.19375104 -6.79327e-20
-9.5394855e-20 0.19375104 -8.2386466e-20
-9.5394855e-20 0.19375104 -9.6840232e-20
VECTORS q double
1 -3.336651e-13 1.4548301e-28
1 -3.336651e-13 2.0367718e-28
1 -3.336651e-13 2.6186483e-28
1 -3.336651e-13 3.2006376e-28
1 -3.336651e-13 3.7826652e-28
1 -1.4387083e-14 7.7155712e-31
1 -1.4387083e-14 1.07515e-30
1 -1.4387083e-14 1.3767819e-30
1 -1.4387083e-14 1.6814275e-30
1 -1.4387083e-14 1.9825049e-30
1 -2.7581418e-13 9.6978932e-29
1 -2.7581418e-13 1.342797e-28
1 -2.7581418e-13 1.7154591e-28
1 -2.7581418e-13 2.0886105e-28
1 -2.7581418e-13 2.4621649e-28
1 1.5181813e-13 2.1840507e-29
1 1.5181813e-13 3.0061352e-29
1 1.5181813e-13 3.8327978e-29
1 1.5181813e-13 4.657532e-29
1 1.5181813e-13 5.4790014e-29
1 4.4491163e-14 1.71488e-30
1 4.4491163e-14 2.3384759e-30
1 4.4491163e-14 2.9794712e-30
1 4.4491163e-14 3.6076297e-30
1 4.4491163e-14 4.2374242e-30
1 -4.6713114e-13 2.036757e-28
1 -4.6713114e-13 2.8514869e-28
1 -4.6713114e-13 3.6661955e-28
1 -4.6713114e-13 4.4808718e-28
1 -4.6713114e-13 5.2956368e-28
1 -2.0084937e-14 1.0767237e-30
1 -2.0084937e-14 1.5006483e-30
1 -2.0084937e-14 1.9216968e-30
1 -2.0084937e-14 2.3472069e-30
1 -2.0084937e-14 2.7663358e-30
1 -3.8397661e-13 1.3499999e-28
1 -3.8397661e-13 1.869263e-28
1 -3.8397661e-13 2.3880999e-28
1 -3.8397661e-13 2.9075244e-28
1 -3.8397661e-13 3.4274575e-28
1 2.1077663e-13 3.0325274e-29
1 2.1077663e-13 4.1740562e-29
1 2.1077663e-13 5.3220343e-29
1 2.1077663e-13 6.4672562e-29
1 2.1077663e-13 7.6078914e-29
1 6.1603149e-14 2.373731e-30
1 6.1603149e-14 3.2375915e-30
1 6.1603149e-14 4.1271156e-30
1 6.1603149e-14 4.9966877e-30
1 6.1603149e-14 5.8669461e-30
1 -6.0059718e-13 2.6187536e-28
1 -6.0059718e-13 3.6660934e-28
1 -6.0059718e-13 4.7136701e-28
1 -6.0059718e-13 5.7612457e-28
1 -6.0059718e-13 6.8087997e-28
1 -2.5782792e-14 1.3828866e-30
1 -2.5782792e-14 1.9274419e-30
1 -2.5782792e-14 2.4679595e-30
1 -2.5782792e-14 3.0141999e-30
1 -2.5782792e-14 3.5537966e-30
1 -4.9213903e-13 1.7307681e-28
1 -4.9213903e-13 2.3964542e-28
1 -4.9213903e-13 3.0615211e-28
1 -4.9213903e-13 3.7275467e-28
1 -4.9213903e-13 4.3941994e-28
1 2.6973513e-13 3.8800982e-29
1 2.6973513e-13 5.340609e-29
1 2.6973513e-13 6.8092042e-29
1 2.6973513e-13 8.2746725e-29
1 2.6973513e-13 9.7337675e-29
1 7.8715135e-14 3.0361607e-30
1 7.8715135e-14 4.140389e-30
1 7.8715135e-14 5.2765131e-30
1 7.8715135e-14 6.3874249e-30
1 7.8715135e-14 7.5025194e-30
1 -7.3406322e-13 3.2006096e-28
1 -7.3406322e-13 4.4808973e-28
1 -7.3406322e-13 5.7610352e-28
1 -7.3406322e-13 7.041384e-28
1 -7.3406322e-13 8.3216647e-28
1 -3.1480646e-14 1.6879233e-30
1 -3.1480646e-14 2.3521936e-30
1 -3.1480646e-14 3.0115644e-30
1 -3.1480646e-14 3.6787047e-30
1 -3.1480646e-14 4.3366214e-30
1 -6.0030145e-13 2.1112878e-28
1 -6.0030145e-13 2.9232768e-28
1 -6.0030145e-13 3.7346242e-28
1 -6.0030145e-13 4.547149e-28
1 -6.0030145e-13 5.3602693e-28
1 3.2869362e-13 4.7291341e-29
1 3.2869362e-13 6.5090436e-29
1 3.2869362e-13 8.299118e-29
1 3.2869362e-13 1.0085054e-28
1 3.2869362e-13 1.1863497e-28
1 9.5827121e-14 3.6947503e-30
1 9.5827121e-14 5.0387035e-30
1 9.5827121e-14 6.4224947e-30
1 9.5827121e-14 7.7740669e-30
1 9.5827121e-14 9.1321544e-30
1 -8.6752926e-13 3.7824372e-28
1 -8.6752926e-13 5.2955137e-28
1 -8.6752926e-13 6.8082948e-28
1 -8.6752926e-13 8.3215234e-28
1 -8.6752926e-13 9.8348684e-28
1 -3.7178501e-14 1.9946992e-30
1 -3.7178501e-14 2.7793562e-30
1 -3.7178501e-14 3.5590686e-30
1 -3.7178501e-14 4.346286e-30
1 -3.7178501e-14 5.1237614e-30
1 -7.0846388e-13 2.4912726e-28
1 -7.0846388e-13 3.4495059e-28
1 -7.0846388e-13 4.4067804e-28
1 -7.0846388e-13 5.3655903e-28
1 -7.0846388e-13 6.3250316e-28
1 3.8765212e-13 5.577128e-29
1 3.8765212e-13 7.6775457e-29
1 3.8765212e-13 9.7878606e-29
1 3.8765212e-13 1.1894069e-28
1 3.8765212e-13 1.3991951e-28
1 1.1293911e-13 4.363583e-30
1 1.1293911e-13 5.9519278e-30
1 1.1293911e-13 7.5827168e-30
1 1.1293911e-13 9.1803864e-30
1 1.1293911e-13 1.0783569e-29
