# vtk DataFile Version 4.0
hesp visualization file
ASCII
DATASET UNSTRUCTURED_GRID
POINTS 125 double
0.5 0.2256459 0.5
0.5 0.2256459 0.7
0.5 0.2256459 0.9
0.5 0.2256459 1.1
0.5 0.2256459 1.3
0.505 0.21834635 0.51
0.505 0.21834635 0.71
0.505 0.21834635 0.91
0.505 0.21834635 1.11
0.505 0.21834635 1.31
0.51 0.21099005 0.52
0.51 0.21099005 0.72
0.51 0.21099005 0.92
0.51 0.21099005 1.12
0.51 0.21099005 1.32
0.515 0.24111543 0.53
0.515 0.24111543 0.73
0.515 0.24111543 0.93
0.515 0.24111543 1.13
0.515 0.24111543 1.33
0.52 0.20094727 0.54
0.52 0.20094727 0.74
0.52 0.20094727 0.94
0.52 0.20094727 1.14
0.52 0.20094727 1.34
0.7 0.2256459 0.5
0.7 0.2256459 0.7
0.7 0.2256459 0.9
0.7 0.2256459 1.1
0.7 0.2256459 1.3
0.705 0.21834635 0.51
0.705 0.21834635 0.71
0.705 0.21834635 0.91
0.705 0.21834635 1.11
0.705 0.21834635 1.31
0.71 0.21099005 0.52
0.71 0.21099005 0.72
0.71 0.21099005 0.92
0.71 0.21099005 1.12
0.71 0.21099005 1.32
0.715 0.24111543 0.53
0.715 0.24111543 0.73
0.715 0.24111543 0.93
0.715 0.24111543 1.13
0.715 0.24111543 1.33
0.72 0.20094727 0.54
0.72 0.20094727 0.74
0.72 0.20094727 0.94
0.72 0.20094727 1.14
0.72 0.20094727 1.34
0.9 0.2256459 0.5
0.9 0.2256459 0.7
0.9 0.2256459 0.9
0.9 0.2256459 1.1
0.9 0.2256459 1.3
0.905 0.21834635 0.51
0.905 0.21834635 0.71
0.905 0.21834635 0.91
0.905 0.21834635 1.11
0.905 0.21834635 1.31
0.91 0.21099005 0.52
0.91 0.21099005 0.72
0.91 0.21099005 0.92
0.91 0.21099005 1.12
0.91 0.21099005 1.32
0.915 0.24111543 0.53
0.915 0.24111543 0.73
0.915 0.24111543 0.93
0.915 0.24111543 1.13
0.915 0.24111543 1.33
0.92 0.20094727 0.54
0.92 0.20094727 0.74
0.92 0.20094727 0.94
0.92 0.20094727 1.14
0.92 0.20094727 1.34
1.1 0.2256459 0.5
1.1 0.2256459 0.7
1.1 0.2256459 0.9
1.1 0.2256459 1.1
1.1 0.2256459 1.3
1.105 0.21834635 0.51
1.105 0.21834635 0.71
1.105 0.21834635 0.91
1.105 0.21834635 1.11
1.105 0.21834635 1.31
1.11 0.21099005 0.52
1.11 0.21099005 0.72
1.11 0.21099005 0.92
1.11 0.21099005 1.12
1.11 0.21099005 1.32
1.115 0.24111543 0.53
1.115 0.24111543 0.73
1.115 0.24111543 0.93
1.115 0.24111543 1.13
1.115 0.24111543 1.33
1.12 0.20094727 0.54
1.12 0.20094727 0.74
1.12 0.20094727 0.94
1.12 0.20094727 1.14
1.12 0.20094727 1.34
1.3 0.2256459 0.5
1.3 0.2256459 0.7
1.3 0.2256459 0.9
1.3 0.2256459 1.1
1.3 0.2256459 1.3
1.305 0.21834635 0.51
1.305 0.21834635 0.71
1.305 0.21834635 0.91
1.305 0.21834635 1.11
1.305 0.21834635 1.31
1.31 0.21099005 0.52
1.31 0.21099005 0.72
1.31 0.21099005 0.92
1.31 0.21099005 1.12
1.31 0.21099005 1.32
1.315 0.24111543 0.53
1.315 0.24111543 0.73
1.315 0.24111543 0.93
1.315 0.24111543 1.13
1.315 0.24111543 1.33
1.32 0.20094727 0.54
1.32 0.20094727 0.74
1.32 0.20094727 0.94
1.32 0.20094727 1.14
1.32 0.20094727 1.34
CELLS 0 0
CELL_TYPES 0
POINT_DATA 125
SCALARS m double
LOOKUP_TABLE default
1
1
1
1
1
1
1
1
1
1
1
1
1
1
1
1
1
1
1
1
1
1
1
1
1
1
1
1
1
1
1
1
1
1
1
1
1
1
1
1
1
1
1
1
1
1
1
1
1
1
1
1
1
1
1
1
1
1
1
1
1
1
1
1
1
1
1
1
1
1
1
1
1
1
1
1
1
1
1
1
1
1
1
1
1
1
1
1
1
1
1
1
1
1
1
1
1
1
1
1
1
1
1
1
1
1
1
1
1
1
1
1
1
1
1
1
1
1
1
1
1
1
1
1
1
SCALARS r double
LOOKUP_TABLE default
0.1
0.1
0.1
0.1
0.1
0.1
0.1
0.1
0.1
0.1
0.1
0.1
0.1
0.1
0.1
0.1
0.1
0.1
0.1
0.1
0.1
0.1
0.1
0.1
0.1
0.1
0.1
0.1
0.1
0.1
0.1
0.1
0.1
0.1
0.1
0.1
0.1
0.1
0.1
0.1
0.1
0.1
0.1
0.1
0.1
0.1
0.1
0.1
0.1
0.1
0.1
0.1
0.1
0.1
0.1
0.1
0.1
0.1
0.1
0.1
0.1
0.1
0.1
0.1
0.1
0.1
0.1
0.1
0.1
0.1
0.1
0.1
0.1
0.1
0.1
0.1
0.1
0.1
0.1
0.1
0.1
0.1
0.1
0.1
0.1
0.1
0.1
0.1
0.1
0.1
0.1
0.1
0.1
0.1
0.1
0.1
0.1
0.1
0.1
0.1
0.1
0.1
0.1
0.1
0.1
0.1
0.1
0.1
0.1
0.1
0.1
0.1
0.1
0.1
0.1
0.1
0.1
0.1
0.1
0.1
0.1
0.1
0.1
0.1
0.1
VECTORS v double
7.1447297e-19 0.27429359 7.1447297e-19
7.1447297e-19 0.27429359 1.0002622e-18
7.1447297e-19 0.27429359 1.2860513e-18
7.1447297e-19 0.27429359 1.5718405e-18
7.1447297e-19 0.27429359 1.8576297e-18
1.3880604e-19 -0.2995878 1.4018036e-19
1.3880604e-19 -0.2995878 1.9515305e-19
1.3880604e-19 -0.2995878 2.5012574e-19
1.3880604e-19 -0.2995878 3.0509843e-19
1.3880604e-19 -0.2995878 3.6007112e-19
5.8258623e-19 -0.092487251 5.9400949e-19
5.8258623e-19 -0.092487251 8.2247468e-19
5.8258623e-19 -0.092487251 1.0509399e-18
5.8258623e-19 -0.092487251 1.2794051e-18
5.8258623e-19 -0.092487251 1.5078702e-18
-1.6396654e-19 -0.18755817 -1.6874227e-19
-1.6396654e-19 -0.18755817 -2.3241859e-19
-1.6396654e-19 -0.18755817 -2.9609492e-19
-1.6396654e-19 -0.18755817 -3.5977125e-19
-1.6396654e-19 -0.18755817 -4.2344757e-19
-3.2158062e-20 0.35846502 -3.3394911e-20
-3.2158062e-20 0.35846502 -4.5763397e-20
-3.2158062e-20 0.35846502 -5.8131882e-20
-3.2158062e-20 0.35846502 -7.0500368e-20
-3.2158062e-20 0.35846502 -8.2868853e-20
1.0002622e-18 0.27429359 7.1447297e-19
1.0002622e-18 0.27429359 1.0002622e-18
1.0002622e-18 0.27429359 1.2860513e-18
1.0002622e-18 0.27429359 1.5718405e-18
1.0002622e-18 0.27429359 1.8576297e-18
1.9377873e-19 -0.2995878 1.4018036e-19
1.9377873e-19 -0.2995878 1.9515305e-19
1.9377873e-19 -0.2995878 2.5012574e-19
1.9377873e-19 -0.2995878 3.0509843e-19
1.9377873e-19 -0.2995878 3.6007112e-19
8.1105142e-19 -0.092487251 5.9400949e-19
8.1105142e-19 -0.092487251 8.2247468e-19
8.1105142e-19 -0.092487251 1.0509399e-18
8.1105142e-19 -0.092487251 1.2794051e-18
8.1105142e-19 -0.092487251 1.5078702e-18
-2.2764287e-19 -0.18755817 -1.6874227e-19
-2.2764287e-19 -0.18755817 -2.3241859e-19
-2.2764287e-19 -0.18755817 -2.9609492e-19
-2.2764287e-19 -0.18755817 -3.5977125e-19
-2.2764287e-19 -0.18755817 -4.2344757e-19
-4.4526548e-20 0.35846502 -3.3394911e-20
-4.4526548e-20 0.35846502 -4.5763397e-20
-4.4526548e-20 0.35846502 -5.8131882e-20
-4.4526548e-20 0.35846502 -7.0500368e-20
-4.4526548e-20 0.35846502 -8.2868853e-20
1.2860513e-18 0.27429359 7.1447297e-19
1.2860513e-18 0.27429359 1.0002622e-18
1.2860513e-18 0.27429359 1.2860513e-18
1.2860513e-18 0.27429359 1.5718405e-18
1.2860513e-18 0.27429359 1.8576297e-18
2.4875142e-19 -0.2995878 1.4018036e-19
2.4875142e-19 -0.2995878 1.9515305e-19
2.4875142e-19 -0.2995878 2.5012574e-19
2.4875142e-19 -0.2995878 3.0509843e-19
2.4875142e-19 -0.2995878 3.6007112e-19
1.0395166e-18 -0.092487251 5.9400949e-19
1.0395166e-18 -0.092487251 8.2247468e-19
1.0395166e-18 -0.092487251 1.0509399e-18
1.0395166e-18 -0.092487251 1.2794051e-18
1.0395166e-18 -0.092487251 1.5078702e-18
-2.913192e-19 -0.18755817 -1.6874227e-19
-2.913192e-19 -0.18755817 -2.3241859e-19
-2.913192e-19 -0.18755817 -2.9609492e-19
-2.913192e-19 -0.18755817 -3.5977125e-19
-2.913192e-19 -0.18755817 -4.2344757e-19
-5.6895034e-20 0.35846502 -3.3394911e-20
-5.6895034e-20 0.35846502 -4.5763397e-20
-5.6895034e-20 0.35846502 -5.8131882e-20
-5.6895034e-20 0.35846502 -7.0500368e-20
-5.6895034e-20 0.35846502 -8.2868853e-20
1.5718405e-18 0.27429359 7.1447297e-19
1.5718405e-18 0.27429359 1.0002622e-18
1.5718405e-18 0.27429359 1.2860513e-18
1.5718405e-18 0.27429359 1.5718405e-18
1.5718405e-18 0.27429359 1.8576297e-18
3.0372411e-19 -0.2995878 1.4018036e-19
3.0372411e-19 -0.2995878 1.9515305e-19
3.0372411e-19 -0.2995878 2.5012574e-19
3.0372411e-19 -0.2995878 3.0509843e-19
3.0372411e-19 -0.2995878 3.6007112e-19
1.2679818e-18 -0.092487251 5.9400949e-19
1.2679818e-18 -0.092487251 8.2247468e-19
1.2679818e-18 -0.092487251 1.0509399e-18
1.2679818e-18 -0.092487251 1.2794051e-18
1.2679818e-18 -0.092487251 1.5078702e-18
-3.5499552e-19 -0.18755817 -1.6874227e-19
-3.5499552e-19 -0.18755817 -2.3241859e-19
-3.5499552e-19 -0.18755817 -2.9609492e-19
-3.5499552e-19 -0.18755817 -3.5977125e-19
-3.5499552e-19 -0.18755817 -4.2344757e-19
-6.9263519e-20 0.35846502 -3.3394911e-20
-6.9263519e-20 0.35846502 -4.5763397e-20
-6.9263519e-20 0.35846502 -5.8131882e-20
-6.9263519e-20 0.35846502 -7.0500368e-20
-6.9263519e-20 0.35846502 -8.2868853e-20
1.8576297e-18 0.27429359 7.1447297e-19
1.8576297e-18 0.27429359 1.0002622e-18
1.8576297e-18 0.27429359 1.2860513e-18
1.8576297e-18 0.27429359 1.5718405e-18
1.8576297e-18 0.27429359 1.8576297e-18
3.586968e-19 -0.2995878 1.4018036e-19
3.586968e-19 -0.2995878 1.9515305e-19
3.586968e-19 -0.2995878 2.5012574e-19
3.586968e-19 -0.2995878 3.0509843e-19
3.586968e-19 -0.2995878 3.6007112e-19
1.496447e-18 -0.092487251 5.9400949e-19
1.496447e-18 -0.092487251 8.2247468e-19
1.496447e-18 -0.092487251 1.0509399e-18
1.496447e-18 -0.092487251 1.2794051e-18
1.496447e-18 -0.092487251 1.5078702e-18
-4.1867185e-19 -0.18755817 -1.6874227e-19
-4.1867185e-19 -0.18755817 -2.3241859e-19
-4.1867185e-19 -0.18755817 -2.9609492e-19
-4.1867185e-19 -0.18755817 -3.5977125e-19
-4.1867185e-19 -0.18755817 -4.2344757e-19
-8.1632005e-20 0.35846502 -3.3394911e-20
-8.1632005e-20 0.35846502 -4.5763397e-20
-8.1632005e-20 0.35846502 -5.8131882e-20
-8.1632005e-20 0.35846502 -7.0500368e-20
-8.1632005e-20 0.35846502 -8.2868853e-20
VECTORS q double
1 -6.3213276e-13 3.9754423e-28
1 -6.3213276e-13 5.5656204e-28
1 -6.3213276e-13 7.1557738e-28
1 -6.3213276e-13 8.7459964e-28
1 -6.3213276e-13 1.0336532e-27
1 -6.7637459e-14 9.929656e-30
1 -6.7637459e-14 1.3827404e-29
1 -6.7637459e-14 1.7715361e-29
1 -6.7637459e-14 2.1621995e-29
1 -6.7637459e-14 2.5510647e-29
1 -5.1650217e-13 2.7188539e-28
1 -5.1650217e-13 3.7645169e-28
1 -5.1650217e-13 4.8096387e-28
1 -5.1650217e-13 5.8556341e-28
1 -5.1650217e-13 6.9024064e-28
1 2.3778598e-13 4.0484189e-29
1 2.3778598e-13 5.572714e-29
1 2.3778598e-13 7.1046876e-29
1 2.3778598e-13 8.6332433e-29
1 2.3778598e-13 1.0156969e-28
1 6.4309505e-14 2.1112361e-30
1 6.4309505e-14 2.8714562e-30
1 6.4309505e-14 3.6669605e-30
1 6.4309505e-14 4.4334825e-30
1 6.4309505e-14 5.2077417e-30
1 -8.8498587e-13 5.5656203e-28
1 -8.8498587e-13 7.7918721e-28
1 -8.8498587e-13 1.0018507e-27
1 -8.8498587e-13 1.224448e-27
1 -8.8498587e-13 1.4471083e-27
1 -9.4424571e-14 1.3859156e-29
1 -9.4424571e-14 1.9300958e-29
1 -9.4424571e-14 2.4726751e-29
1 -9.4424571e-14 3.0179551e-29
1 -9.4424571e-14 3.5605983e-29
1 -7.1905204e-13 3.7850452e-28
1 -7.1905204e-13 5.2408499e-28
1 -7.1905204e-13 6.6958861e-28
1 -7.1905204e-13 8.1519388e-28
1 -7.1905204e-13 9.6089375e-28
1 3.3013005e-13 5.6216779e-29
1 3.3013005e-13 7.7385486e-29
1 3.3013005e-13 9.8661481e-29
1 3.3013005e-13 1.198878e-28
1 3.3013005e-13 1.4104711e-28
1 8.9043931e-14 2.9204443e-30
1 8.9043931e-14 3.9731098e-30
1 8.9043931e-14 5.0767594e-30
1 8.9043931e-14 6.1372294e-30
1 8.9043931e-14 7.2058104e-30
1 -1.137839e-12 7.1558421e-28
1 -1.137839e-12 1.001765e-27
1 -1.137839e-12 1.2880454e-27
1 -1.137839e-12 1.5742835e-27
1 -1.137839e-12 1.8605607e-27
1 -1.2121168e-13 1.7794874e-29
1 -1.2121168e-13 2.4781289e-29
1 -1.2121168e-13 3.1748212e-29
1 -1.2121168e-13 3.874628e-29
1 -1.2121168e-13 4.5717455e-29
1 -9.216019e-13 4.8518839e-28
1 -9.216019e-13 6.7179725e-28
1 -9.216019e-13 8.5829173e-28
1 -9.216019e-13 1.0449754e-27
1 -9.216019e-13 1.2317539e-27
1 4.2247412e-13 7.1927128e-29
1 4.2247412e-13 9.900998e-29
1 4.2247412e-13 1.26228e-28
1 4.2247412e-13 1.5338892e-28
1 4.2247412e-13 1.804568e-28
1 1.1377836e-13 3.739953e-30
1 1.1377836e-13 5.0868949e-30
1 1.1377836e-13 6.4979667e-30
1 1.1377836e-13 7.8540982e-30
1 1.1377836e-13 9.2256254e-30
1 -1.3906921e-12 8.7459389e-28
1 -1.3906921e-12 1.2244305e-27
1 -1.3906921e-12 1.5742672e-27
1 -1.3906921e-12 1.9241139e-27
1 -1.3906921e-12 2.2740132e-27
1 -1.479988e-13 2.1719599e-29
1 -1.479988e-13 3.0246015e-29
1 -1.479988e-13 3.8747661e-29
1 -1.479988e-13 4.7293959e-29
1 -1.479988e-13 5.579935e-29
1 -1.1241518e-12 5.9186866e-28
1 -1.1241518e-12 8.1949823e-28
1 -1.1241518e-12 1.0470082e-27
1 -1.1241518e-12 1.2747303e-27
1 -1.1241518e-12 1.5025771e-27
1 5.1481819e-13 8.766848e-29
1 5.1481819e-13 1.2067519e-28
1 5.1481819e-13 1.5385078e-28
1 5.1481819e-13 1.8695386e-28
1 5.1481819e-13 2.199458e-28
1 1.3851278e-13 4.54918e-30
1 1.3851278e-13 6.1880725e-30
1 1.3851278e-13 7.9059654e-30
1 1.3851278e-13 9.5549411e-30
1 1.3851278e-13 1.1225004e-29
1 -1.6435452e-12 1.0335761e-27
1 -1.6435452e-12 1.4470059e-27
1 -1.6435452e-12 1.860435e-27
1 -1.6435452e-12 2.27389e-27
1 -1.6435452e-12 2.6874313e-27
1 -1.7478591e-13 2.5662437e-29
1 -1.7478591e-13 3.5736247e-29
1 -1.7478591e-13 4.5781181e-29
1 -1.7478591e-13 5.5876184e-29
1 -1.7478591e-13 6.5926603e-29
1 -1.3267016e-12 6.983949e-28
1 -1.3267016e-12 9.6700956e-28
1 -1.3267016e-12 1.2354492e-27
1 -1.3267016e-12 1.5042083e-27
1 -1.3267016e-12 1.7730289e-27
1 6.0716226e-13 1.0339158e-28
1 6.0716226e-13 1.4233805e-28
1 6.0716226e-13 1.8145291e-28
1 6.0716226e-13 2.204914e-28
1 6.0716226e-13 2.5940951e-28
1 1.6324721e-13 5.3792805e-30
1 1.6324721e-13 7.3188344e-30
1 1.6324721e-13 9.3452601e-30
1 1.6324721e-13 1.1297433e-29
1 1.6324721e-13 1.3271045e-29
