# vtk DataFile Version 4.0
hesp visualization file
ASCII
DATASET UNSTRUCTURED_GRID
POINTS 125 double
0.5 0.21789203 0.5
0.5 0.21789203 0.7
0.5 0.21789203 0.9
0.5 0.21789203 1.1
0.5 0.21789203 1.3
0.505 0.21918983 0.51
0.505 0.21918983 0.71
0.505 0.21918983 0.91
0.505 0.21918983 1.11
0.505 0.21918983 1.31
0.51 0.20313364 0.52
0.51 0.20313364 0.72
0.51 0.20313364 0.92
0.51 0.20313364 1.12
0.51 0.20313364 1.32
0.515 0.24961329 0.53
0.515 0.24961329 0.73
0.515 0.24961329 0.93
0.515 0.24961329 1.13
0.515 0.24961329 1.33
0.52 0.19853116 0.54
0.52 0.19853116 0.74
0.52 0.19853116 0.94
0.52 0.19853116 1.14
0.52 0.19853116 1.34
0.7 0.21789203 0.5
0.7 0.21789203 0.7
0.7 0.21789203 0.9
0.7 0.21789203 1.1
0.7 0.21789203 1.3
0.705 0.21918983 0.51
0.705 0.21918983 0.71
0.705 0.21918983 0.91
0.705 0.21918983 1.11
0.705 0.21918983 1.31
0.71 0.20313364 0.52
0.71 0.20313364 0.72
0.71 0.20313364 0.92
0.71 0.20313364 1.12
0.71 0.20313364 1.32
0.715 0.24961329 0.53
0.715 0.24961329 0.73
0.715 0.24961329 0.93
0.715 0.24961329 1.13
0.715 0.24961329 1.33
0.72 0.19853116 0.54
0.72 0.19853116 0.74
0.72 0.19853116 0.94
0.72 0.19853116 1.14
0.72 0.19853116 1.34
0.9 0.21789203 0.5
0.9 0.21789203 0.7
0.9 0.21789203 0.9
0.9 0.21789203 1.1
0.9 0.21789203 1.3
0.905 0.21918983 0.51
0.905 0.21918983 0.71
0.905 0.21918983 0.91
0.905 0.21918983 1.11
0.905 0.21918983 1.31
0.91 0.20313364 0.52
0.91 0.20313364 0.72
0.91 0.20313364 0.92
0.91 0.20313364 1.12
0.91 0.20313364 1.32
0.915 0.24961329 0.53
0.915 0.24961329 0.73
0.915 0.24961329 0.93
0.915 0.24961329 1.13
0.915 0.24961329 1.33
0.92 0.19853116 0.54
0.92 0.19853116 0.74
0.92 0.19853116 0.94
0.92 0.19853116 1.14
0.92 0.19853116 1.34
1.1 0.21789203 0.5
1.1 0.21789203 0.7
1.1 0.21789203 0.9
1.1 0.21789203 1.1
1.1 0.21789203 1.3
1.105 0.21918983 0.51
1.105 0.21918983 0.71
1.105 0.21918983 0.91
1.105 0.21918983 1.11
1.105 0.21918983 1.31
1.11 0.20313364 0.52
1.11 0.20313364 0.72
1.11 0.20313364 0.92
1.11 0.20313364 1.12
1.11 0.20313364 1.32
1.115 0.24961329 0.53
1.115 0.24961329 0.73
1.115 0.24961329 0.93
1.115 0.24961329 1.13
1.115 0.24961329 1.33
1.12 0.19853116 0.54
1.12 0.19853116 0.74
1.12 0.19853116 0.94
1.12 0.19853116 1.14
1.12 0.19853116 1.34
1.3 0.21789203 0.5
1.3 0.21789203 0.7
1.3 0.21789203 0.9
1.3 0.21789203 1.1
1.3 0.21789203 1.3
1.305 0.21918983 0.51
1.305 0.21918983 0.71
1.305 0.21918983 0.91
1.305 0.21918983 1.11
1.305 0.21918983 1.31
1.31 0.20313364 0.52
1.31 0.20313364 0.72
1.31 0.20313364 0.92
1.31 0.20313364 1.12
1.31 0.20313364 1.32
1.315 0.24961329 0.53
1.315 0.24961329 0.73
1.315 0.24961329 0.93
1.315 0.24961329 1.13
1.315 0.24961329 1.33
1.32 0.19853116 0.54
1.32 0.19853116 0.74
1.32 0.19853116 0.94
1.32 0.19853116 1.14
1.32 0.19853116 1.34
CELLS 0 0
CELL_TYPES 0
POINT_DATA 125
SCALARS m double
LOOKUP_TABLE default
1
1
1
1
1
1
1
1
1
1
1
1
1
1
1
1
1
1
1
1
1
1
1
1
1
1
1
1
1
1
1
1
1
1
1
1
1
1
1
1
1
1
1
1
1
1
1
1
1
1
1
1
1
1
1
1
1
1
1
1
1
1
1
1
1
1
1
1
1
1
1
1
1
1
1
1
1
1
1
1
1
1
1
1
1
1
1
1
1
1
1
1
1
1
1
1
1
1
1
1
1
1
1
1
1
1
1
1
1
1
1
1
1
1
1
1
1
1
1
1
1
1
1
1
1
SCALARS r double
LOOKUP_TABLE default
0.1
0.1
0.1
0.1
0.1
0.1
0.1
0.1
0.1
0.1
0.1
0.1
0.1
0.1
0.1
0.1
0.1
0.1
0.1
0.1
0.1
0.1
0.1
0.1
0.1
0.1
0.1
0.1
0.1
0.1
0.1
0.1
0.1
0.1
0.1
0.1
0.1
0.1
0.1
0.1
0.1
0.1
0.1
0.1
0.1
0.1
0.1
0.1
0.1
0.1
0.1
0.1
0.1
0.1
0.1
0.1
0.1
0.1
0.1
0.1
0.1
0.1
0.1
0.1
0.1
0.1
0.1
0.1
0.1
0.1
0.1
0.1
0.1
0.1
0.1
0.1
0.1
0.1
0.1
0.1
0.1
0.1
0.1
0.1
0.1
0.1
0.1
0.1
0.1
0.1
0.1
0.1
0.1
0.1
0.1
0.1
0.1
0.1
0.1
0.1
0.1
0.1
0.1
0.1
0.1
0.1
0.1
0.1
0.1
0.1
0.1
0.1
0.1
0.1
0.1
0.1
0.1
0.1
0.1
0.1
0.1
0.1
0.1
0.1
0.1
VECTORS v double
4.9174658e-19 0.30134338 4.9174658e-19
4.9174658e-19 0.30134338 6.8844521e-19
4.9174658e-19 0.30134338 8.8514384e-19
4.9174658e-19 0.30134338 1.0818425e-18
4.9174658e-19 0.30134338 1.2785411e-18
4.1489933e-20 -0.29854358 4.1900725e-20
4.1489933e-20 -0.29854358 5.8332382e-20
4.1489933e-20 -0.29854358 7.4764038e-20
4.1489933e-20 -0.29854358 9.1195695e-20
4.1489933e-20 -0.29854358 1.0762735e-19
3.904237e-19 0.13270398 3.9807907e-19
3.904237e-19 0.13270398 5.511864e-19
3.904237e-19 0.13270398 7.0429373e-19
3.904237e-19 0.13270398 8.5740107e-19
3.904237e-19 0.13270398 1.0105084e-18
-1.3433669e-19 -0.17647851 -1.3824941e-19
-1.3433669e-19 -0.17647851 -1.9041899e-19
-1.3433669e-19 -0.17647851 -2.4258858e-19
-1.3433669e-19 -0.17647851 -2.9475817e-19
-1.3433669e-19 -0.17647851 -3.4692776e-19
-3.7377727e-20 0.20207844 -3.8815332e-20
-3.7377727e-20 0.20207844 -5.3191381e-20
-3.7377727e-20 0.20207844 -6.7567429e-20
-3.7377727e-20 0.20207844 -8.1943478e-20
-3.7377727e-20 0.20207844 -9.6319527e-20
6.8844521e-19 0.30134338 4.9174658e-19
6.8844521e-19 0.30134338 6.8844521e-19
6.8844521e-19 0.30134338 8.8514384e-19
6.8844521e-19 0.30134338 1.0818425e-18
6.8844521e-19 0.30134338 1.2785411e-18
5.792159e-20 -0.29854358 4.1900725e-20
5.792159e-20 -0.29854358 5.8332382e-20
5.792159e-20 -0.29854358 7.4764038e-20
5.792159e-20 -0.29854358 9.1195695e-20
5.792159e-20 -0.29854358 1.0762735e-19
5.4353103e-19 0.13270398 3.9807907e-19
5.4353103e-19 0.13270398 5.511864e-19
5.4353103e-19 0.13270398 7.0429373e-19
5.4353103e-19 0.13270398 8.5740107e-19
5.4353103e-19 0.13270398 1.0105084e-18
-1.8650628e-19 -0.17647851 -1.3824941e-19
-1.8650628e-19 -0.17647851 -1.9041899e-19
-1.8650628e-19 -0.17647851 -2.4258858e-19
-1.8650628e-19 -0.17647851 -2.9475817e-19
-1.8650628e-19 -0.17647851 -3.4692776e-19
-5.1753776e-20 0.20207844 -3.8815332e-20
-5.1753776e-20 0.20207844 -5.3191381e-20
-5.1753776e-20 0.20207844 -6.7567429e-20
-5.1753776e-20 0.20207844 -8.1943478e-20
-5.1753776e-20 0.20207844 -9.6319527e-20
8.8514384e-19 0.30134338 4.9174658e-19
8.8514384e-19 0.30134338 6.8844521e-19
8.8514384e-19 0.30134338 8.8514384e-19
8.8514384e-19 0.30134338 1.0818425e-18
8.8514384e-19 0.30134338 1.2785411e-18
7.4353247e-20 -0.29854358 4.1900725e-20
7.4353247e-20 -0.29854358 5.8332382e-20
7.4353247e-20 -0.29854358 7.4764038e-20
7.4353247e-20 -0.29854358 9.1195695e-20
7.4353247e-20 -0.29854358 1.0762735e-19
6.9663837e-19 0.13270398 3.9807907e-19
6.9663837e-19 0.13270398 5.511864e-19
6.9663837e-19 0.13270398 7.0429373e-19
6.9663837e-19 0.13270398 8.5740107e-19
6.9663837e-19 0.13270398 1.0105084e-18
-2.3867586e-19 -0.17647851 -1.3824941e-19
-2.3867586e-19 -0.17647851 -1.9041899e-19
-2.3867586e-19 -0.17647851 -2.4258858e-19
-2.3867586e-19 -0.17647851 -2.9475817e-19
-2.3867586e-19 -0.17647851 -3.4692776e-19
-6.6129825e-20 0.20207844 -3.8815332e-20
-6.6129825e-20 0.20207844 -5.3191381e-20
-6.6129825e-20 0.20207844 -6.7567429e-20
-6.6129825e-20 0.20207844 -8.1943478e-20
-6.6129825e-20 0.20207844 -9.6319527e-20
1.0818425e-18 0.30134338 4.9174658e-19
1.0818425e-18 0.30134338 6.8844521e-19
1.0818425e-18 0.30134338 8.8514384e-19
1.0818425e-18 0.30134338 1.0818425e-18
1.0818425e-18 0.30134338 1.2785411e-18
9.0784904e-20 -0.29854358 4.1900725e-20
9.0784904e-20 -0.29854358 5.8332382e-20
9.0784904e-20 -0.29854358 7.4764038e-20
9.0784904e-20 -0.29854358 9.1195695e-20
9.0784904e-20 -0.29854358 1.0762735e-19
8.497457e-19 0.13270398 3.9807907e-19
8.497457e-19 0.13270398 5.511864e-19
8.497457e-19 0.13270398 7.0429373e-19
8.497457e-19 0.13270398 8.5740107e-19
8.497457e-19 0.13270398 1.0105084e-18
-2.9084545e-19 -0.17647851 -1.3824941e-19
-2.9084545e-19 -0.17647851 -1.9041899e-19
-2.9084545e-19 -0.17647851 -2.4258858e-19
-2.9084545e-19 -0.17647851 -2.9475817e-19
-2.9084545e-19 -0.17647851 -3.4692776e-19
-8.0505873e-20 0.20207844 -3.8815332e-20
-8.0505873e-20 0.20207844 -5.3191381e-20
-8.0505873e-20 0.20207844 -6.7567429e-20
-8.0505873e-20 0.20207844 -8.1943478e-20
-8.0505873e-20 0.20207844 -9.6319527e-20
1.2785411e-18 0.30134338 4.9174658e-19
1.2785411e-18 0.30134338 6.8844521e-19
1.2785411e-18 0.30134338 8.8514384e-19
1.2785411e-18 0.30134338 1.0818425e-18
1.2785411e-18 0.30134338 1.2785411e-18
1.0721656e-19 -0.29854358 4.1900725e-20
1.0721656e-19 -0.29854358 5.8332382e-20
1.0721656e-19 -0.29854358 7.4764038e-20
1.0721656e-19 -0.29854358 9.1195695e-20
1.0721656e-19 -0.29854358 1.0762735e-19
1.002853e-18 0.13270398 3.9807907e-19
1.002853e-18 0.13270398 5.511864e-19
1.002853e-18 0.13270398 7.0429373e-19
1.002853e-18 0.13270398 8.5740107e-19
1.002853e-18 0.13270398 1.0105084e-18
-3.4301504e-19 -0.17647851 -1.3824941e-19
-3.4301504e-19 -0.17647851 -1.9041899e-19
-3.4301504e-19 -0.17647851 -2.4258858e-19
-3.4301504e-19 -0.17647851 -2.9475817e-19
-3.4301504e-19 -0.17647851 -3.4692776e-19
-9.4881922e-20 0.20207844 -3.8815332e-20
-9.4881922e-20 0.20207844 -5.3191381e-20
-9.4881922e-20 0.20207844 -6.7567429e-20
-9.4881922e-20 0.20207844 -8.1943478e-20
-9.4881922e-20 0.20207844 -9.6319527e-20
VECTORS q double
1 -3.1817639e-13 1.3506114e-28
1 -3.1817639e-13 1.8908635e-28
1 -3.1817639e-13 2.4310521e-28
1 -3.1817639e-13 2.971353e-28
1 -3.1817639e-13 3.5116825e-28
1 -1.2560956e-14 6.1348367e-31
1 -1.2560956e-14 8.5499326e-31
1 -1.2560956e-14 1.0947918e-30
1 -1.2560956e-14 1.3370744e-30
1 -1.2560956e-14 1.576343e-30
1 -2.6356652e-13 9.0147968e-29
1 -2.6356652e-13 1.2482171e-28
1 -2.6356652e-13 1.5946214e-28
1 -2.6356652e-13 1.9414957e-28
1 -2.6356652e-13 2.2887461e-28
1 1.4681527e-13 2.0885254e-29
1 1.4681527e-13 2.8746375e-29
1 1.4681527e-13 3.6651575e-29
1 1.4681527e-13 4.4538205e-29
1 1.4681527e-13 5.2393248e-29
1 4.3160279e-14 1.6559858e-30
1 4.3160279e-14 2.2583293e-30
1 4.3160279e-14 2.877106e-30
1 4.3160279e-14 3.4839017e-30
1 4.3160279e-14 4.0920216e-30
1 -4.4544694e-13 1.8908533e-28
1 -4.4544694e-13 2.6472184e-28
1 -4.4544694e-13 3.4035533e-28
1 -4.4544694e-13 4.1598777e-28
1 -4.4544694e-13 4.9162724e-28
1 -1.7535592e-14 8.5620398e-31
1 -1.7535592e-14 1.1934719e-30
1 -1.7535592e-14 1.5282656e-30
1 -1.7535592e-14 1.866748e-30
1 -1.7535592e-14 2.1997702e-30
1 -3.6692594e-13 1.2549011e-28
1 -3.6692594e-13 1.7375893e-28
1 -3.6692594e-13 2.219869e-28
1 -3.6692594e-13 2.7027159e-28
1 -3.6692594e-13 3.1860369e-28
1 2.0383091e-13 2.8998809e-29
1 2.0383091e-13 3.9914509e-29
1 2.0383091e-13 5.0892338e-29
1 2.0383091e-13 6.1843726e-29
1 2.0383091e-13 7.275063e-29
1 5.9760386e-14 2.2922816e-30
1 5.9760386e-14 3.1267298e-30
1 5.9760386e-14 3.9854574e-30
1 5.9760386e-14 4.825485e-30
1 5.9760386e-14 5.6658257e-30
1 -5.727175e-13 2.4311618e-28
1 -5.727175e-13 3.4034744e-28
1 -5.727175e-13 4.3760021e-28
1 -5.727175e-13 5.3485389e-28
1 -5.727175e-13 6.3210438e-28
1 -2.2510228e-14 1.0996636e-30
1 -2.2510228e-14 1.5329204e-30
1 -2.2510228e-14 1.9626654e-30
1 -2.2510228e-14 2.3972241e-30
1 -2.2510228e-14 2.8260267e-30
1 -4.7028536e-13 1.6088678e-28
1 -4.7028536e-13 2.2276748e-28
1 -4.7028536e-13 2.8458845e-28
1 -4.7028536e-13 3.4650122e-28
1 -4.7028536e-13 4.0847314e-28
1 2.6084655e-13 3.7103785e-29
1 2.6084655e-13 5.1069724e-29
1 2.6084655e-13 6.5113493e-29
1 2.6084655e-13 7.9127297e-29
1 2.6084655e-13 9.3079311e-29
1 7.6360493e-14 2.9318261e-30
1 7.6360493e-14 3.9984013e-30
1 7.6360493e-14 5.0951212e-30
1 7.6360493e-14 6.1682174e-30
1 7.6360493e-14 7.2449238e-30
1 -6.9998805e-13 2.9713322e-28
1 -6.9998805e-13 4.1599032e-28
1 -6.9998805e-13 5.3483311e-28
1 -6.9998805e-13 6.5369667e-28
1 -6.9998805e-13 7.7255148e-28
1 -2.7484864e-14 1.3422973e-30
1 -2.7484864e-14 1.8708058e-30
1 -2.7484864e-14 2.395044e-30
1 -2.7484864e-14 2.9258047e-30
1 -2.7484864e-14 3.4485863e-30
1 -5.7364478e-13 1.9625842e-28
1 -5.7364478e-13 2.7173878e-28
1 -5.7364478e-13 3.4715745e-28
1 -5.7364478e-13 4.2268863e-28
1 -5.7364478e-13 4.9827572e-28
1 3.1786219e-13 4.5222773e-29
1 3.1786219e-13 6.2242892e-29
1 3.1786219e-13 7.9360999e-29
1 3.1786219e-13 9.6439217e-29
1 3.1786219e-13 1.1344494e-28
1 9.29606e-14 3.5678496e-30
1 9.29606e-14 4.8659879e-30
1 9.29606e-14 6.2018344e-30
1 9.29606e-14 7.5074292e-30
1 9.29606e-14 8.818777e-30
1 -8.2725861e-13 3.5114835e-28
1 -8.2725861e-13 4.9161705e-28
1 -8.2725861e-13 6.3205681e-28
1 -8.2725861e-13 7.7254098e-28
1 -8.2725861e-13 9.1303439e-28
1 -3.24595e-14 1.5861727e-30
1 -3.24595e-14 2.2103613e-30
1 -3.24595e-14 2.8304095e-30
1 -3.24595e-14 3.4565252e-30
1 -3.24595e-14 4.0742591e-30
1 -6.770042e-13 2.3158024e-28
1 -6.770042e-13 3.2065544e-28
1 -6.770042e-13 4.0963799e-28
1 -6.770042e-13 4.9876739e-28
1 -6.770042e-13 5.879565e-28
1 3.7487783e-13 5.3331621e-29
1 3.7487783e-13 7.3416655e-29
1 3.7487783e-13 9.3596973e-29
1 3.7487783e-13 1.1373783e-28
1 3.7487783e-13 1.3379805e-28
1 1.0956071e-13 4.2135478e-30
1 1.0956071e-13 5.7476978e-30
1 1.0956071e-13 7.3218928e-30
1 1.0956071e-13 8.865157e-30
1 1.0956071e-13 1.0413103e-29
