# vtk DataFile Version 4.0
hesp visualization file
ASCII
DATASET UNSTRUCTURED_GRID
POINTS 125 double
0.5 0.29802612 0.5
0.5 0.29802612 0.7
0.5 0.29802612 0.9
0.5 0.29802612 1.1
0.5 0.29802612 1.3
0.505 0.29754741 0.51
0.505 0.29754741 0.71
0.505 0.29754741 0.91
0.505 0.29754741 1.11
0.505 0.29754741 1.31
0.51 0.19883793 0.52
0.51 0.19883793 0.72
0.51 0.19883793 0.92
0.51 0.19883793 1.12
0.51 0.19883793 1.32
0.515 0.31334012 0.53
0.515 0.31334012 0.73
0.515 0.31334012 0.93
0.515 0.31334012 1.13
0.515 0.31334012 1.33
0.52 0.26854794 0.54
0.52 0.26854794 0.74
0.52 0.26854794 0.94
0.52 0.26854794 1.14
0.52 0.26854794 1.34
0.7 0.29802612 0.5
0.7 0.29802612 0.7
0.7 0.29802612 0.9
0.7 0.29802612 1.1
0.7 0.29802612 1.3
0.705 0.29754741 0.51
0.705 0.29754741 0.71
0.705 0.29754741 0.91
0.705 0.29754741 1.11
0.705 0.29754741 1.31
0.71 0.19883793 0.52
0.71 0.19883793 0.72
0.71 0.19883793 0.92
0.71 0.19883793 1.12
0.71 0.19883793 1.32
0.715 0.31334012 0.53
0.715 0.31334012 0.73
0.715 0.31334012 0.93
0.715 0.31334012 1.13
0.715 0.31334012 1.33
0.72 0.26854794 0.54
0.72 0.26854794 0.74
0.72 0.26854794 0.94
0.72 0.26854794 1.14
0.72 0.26854794 1.34
0.9 0.29802612 0.5
0.9 0.29802612 0.7
0.9 0.29802612 0.9
0.9 0.29802612 1.1
0.9 0.29802612 1.3
0.905 0.29754741 0.51
0.905 0.29754741 0.71
0.905 0.29754741 0.91
0.905 0.29754741 1.11
0.905 0.29754741 1.31
0.91 0.19883793 0.52
0.91 0.19883793 0.72
0.91 0.19883793 0.92
0.91 0.19883793 1.12
0.91 0.19883793 1.32
0.915 0.31334012 0.53
0.915 0.31334012 0.73
0.915 0.31334012 0.93
0.915 0.31334012 1.13
0.915 0.31334012 1.33
0.92 0.26854794 0.54
0.92 0.26854794 0.74
0.92 0.26854794 0.94
0.92 0.26854794 1.14
0.92 0.26854794 1.34
1.1 0.29802612 0.5
1.1 0.29802612 0.7
1.1 0.29802612 0.9
1.1 0.29802612 1.1
1.1 0.29802612 1.3
1.105 0.29754741 0.51
1.105 0.29754741 0.71
1.105 0.29754741 0.91
1.105 0.29754741 1.11
1.105 0.29754741 1.31
1.11 0.19883793 0.52
1.11 0.19883793 0.72
1.11 0.19883793 0.92
1.11 0.19883793 1.12
1.11 0.19883793 1.32
1.115 0.31334012 0.53
1.115 0.31334012 0.73
1.115 0.31334012 0.93
1.115 0.31334012 1.13
1.115 0.31334012 1.33
1.12 0.26854794 0.54
1.12 0.26854794 0.74
1.12 0.26854794 0.94
1.12 0.26854794 1.14
1.12 0.26854794 1.34
1.3 0.29802612 0.5
1.3 0.29802612 0.7
1.3 0.29802612 0.9
1.3 0.29802612 1.1
1.3 0.29802612 1.3
1.305 0.29754741 0.51
1.305 0.29754741 0.71
1.305 0.29754741 0.91
1.305 0.29754741 1.11
1.305 0.29754741 1.31
1.31 0.19883793 0.52
1.31 0.19883793 0.72
1.31 0.19883793 0.92
1.31 0.19883793 1.12
1.31 0.19883793 1.32
1.315 0.31334012 0.53
1.315 0.31334012 0.73
1.315 0.31334012 0.93
1.315 0.31334012 1.13
1.315 0.31334012 1.33
1.32 0.26854794 0.54
1.32 0.26854794 0.74
1.32 0.26854794 0.94
1.32 0.26854794 1.14
1.32 0.26854794 1.34
CELLS 0 0
CELL_TYPES 0
POINT_DATA 125
SCALARS m double
LOOKUP_TABLE default
1
1
1
1
1
1
1
1
1
1
1
1
1
1
1
1
1
1
1
1
1
1
1
1
1
1
1
1
1
1
1
1
1
1
1
1
1
1
1
1
1
1
1
1
1
1
1
1
1
1
1
1
1
1
1
1
1
1
1
1
1
1
1
1
1
1
1
1
1
1
1
1
1
1
1
1
1
1
1
1
1
1
1
1
1
1
1
1
1
1
1
1
1
1
1
1
1
1
1
1
1
1
1
1
1
1
1
1
1
1
1
1
1
1
1
1
1
1
1
1
1
1
1
1
1
SCALARS r double
LOOKUP_TABLE default
0.1
0.1
0.1
0.1
0.1
0.1
0.1
0.1
0.1
0.1
0.1
0.1
0.1
0.1
0.1
0.1
0.1
0.1
0.1
0.1
0.1
0.1
0.1
0.1
0.1
0.1
0.1
0.1
0.1
0.1
0.1
0.1
0.1
0.1
0.1
0.1
0.1
0.1
0.1
0.1
0.1
0.1
0.1
0.1
0.1
0.1
0.1
0.1
0.1
0.1
0.1
0.1
0.1
0.1
0.1
0.1
0.1
0.1
0.1
0.1
0.1
0.1
0.1
0.1
0.1
0.1
0.1
0.1
0.1
0.1
0.1
0.1
0.1
0.1
0.1
0.1
0.1
0.1
0.1
0.1
0.1
0.1
0.1
0.1
0.1
0.1
0.1
0.1
0.1
0.1
0.1
0.1
0.1
0.1
0.1
0.1
0.1
0.1
0.1
0.1
0.1
0.1
0.1
0.1
0.1
0.1
0.1
0.1
0.1
0.1
0.1
0.1
0.1
0.1
0.1
0.1
0.1
0.1
0.1
0.1
0.1
0.1
0.1
0.1
0.1
VECTORS v double
1.6330824e-20 -0.48846571 1.6330824e-20
1.6330824e-20 -0.48846571 2.2863154e-20
1.6330824e-20 -0.48846571 2.9395484e-20
1.6330824e-20 -0.48846571 3.5927814e-20
1.6330824e-20 -0.48846571 4.2460144e-20
0 0.27403814 0
0 0.27403814 0
0 0.27403814 0
0 0.27403814 0
0 0.27403814 0
1.8418966e-20 0.035077405 1.8780122e-20
1.8418966e-20 0.035077405 2.6003247e-20
1.8418966e-20 0.035077405 3.3226371e-20
1.8418966e-20 0.035077405 4.0449495e-20
1.8418966e-20 0.035077405 4.7672619e-20
-2.1590944e-20 0.37307204 -2.2219806e-20
-2.1590944e-20 0.37307204 -3.0604638e-20
-2.1590944e-20 0.37307204 -3.8989471e-20
-2.1590944e-20 0.37307204 -4.7374303e-20
-2.1590944e-20 0.37307204 -5.5759136e-20
0 0.49306108 0
0 0.49306108 0
0 0.49306108 0
0 0.49306108 0
0 0.49306108 0
2.2863154e-20 -0.48846571 1.6330824e-20
2.2863154e-20 -0.48846571 2.2863154e-20
2.2863154e-20 -0.48846571 2.9395484e-20
2.2863154e-20 -0.48846571 3.5927814e-20
2.2863154e-20 -0.48846571 4.2460144e-20
0 0.27403814 0
0 0.27403814 0
0 0.27403814 0
0 0.27403814 0
0 0.27403814 0
2.564209e-20 0.035077405 1.8780122e-20
2.564209e-20 0.035077405 2.6003247e-20
2.564209e-20 0.035077405 3.3226371e-20
2.564209e-20 0.035077405 4.0449495e-20
2.564209e-20 0.035077405 4.7672619e-20
-2.9975776e-20 0.37307204 -2.2219806e-20
-2.9975776e-20 0.37307204 -3.0604638e-20
-2.9975776e-20 0.37307204 -3.8989471e-20
-2.9975776e-20 0.37307204 -4.7374303e-20
-2.9975776e-20 0.37307204 -5.5759136e-20
0 0.49306108 0
0 0.49306108 0
0 0.49306108 0
0 0.49306108 0
0 0.49306108 0
2.9395484e-20 -0.48846571 1.6330824e-20
2.9395484e-20 -0.48846571 2.2863154e-20
2.9395484e-20 -0.48846571 2.9395484e-20
2.9395484e-20 -0.48846571 3.5927814e-20
2.9395484e-20 -0.48846571 4.2460144e-20
0 0.27403814 0
0 0.27403814 0
0 0.27403814 0
0 0.27403814 0
0 0.27403814 0
3.2865214e-20 0.035077405 1.8780122e-20
3.2865214e-20 0.035077405 2.6003247e-20
3.2865214e-20 0.035077405 3.3226371e-20
3.2865214e-20 0.035077405 4.0449495e-20
3.2865214e-20 0.035077405 4.7672619e-20
-3.8360608e-20 0.37307204 -2.2219806e-20
-3.8360608e-20 0.37307204 -3.0604638e-20
-3.8360608e-20 0.37307204 -3.8989471e-20
-3.8360608e-20 0.37307204 -4.7374303e-20
-3.8360608e-20 0.37307204 -5.5759136e-20
0 0.49306108 0
0 0.49306108 0
0 0.49306108 0
0 0.49306108 0
0 0.49306108 0
3.5927814e-20 -0.48846571 1.6330824e-20
3.5927814e-20 -0.48846571 2.2863154e-20
3.5927814e-20 -0.48846571 2.9395484e-20
3.5927814e-20 -0.48846571 3.5927814e-20
3.5927814e-20 -0.48846571 4.2460144e-20
0 0.27403814 0
0 0.27403814 0
0 0.27403814 0
0 0.27403814 0
0 0.27403814 0
4.0088338e-20 0.035077405 1.8780122e-20
4.0088338e-20 0.035077405 2.6003247e-20
4.0088338e-20 0.035077405 3.3226371e-20
4.0088338e-20 0.035077405 4.0449495e-20
4.0088338e-20 0.035077405 4.7672619e-20
-4.6745441e-20 0.37307204 -2.2219806e-20
-4.6745441e-20 0.37307204 -3.0604638e-20
-4.6745441e-20 0.37307204 -3.8989471e-20
-4.6745441e-20 0.37307204 -4.7374303e-20
-4.6745441e-20 0.37307204 -5.5759136e-20
0 0.49306108 0
0 0.49306108 0
0 0.49306108 0
0 0.49306108 0
0 0.49306108 0
4.2460144e-20 -0.48846571 1.6330824e-20
4.2460144e-20 -0.48846571 2.2863154e-20
4.2460144e-20 -0.48846571 2.9395484e-20
4.2460144e-20 -0.48846571 3.5927814e-20
4.2460144e-20 -0.48846571 4.2460144e-20
0 0.27403814 0
0 0.27403814 0
0 0.27403814 0
0 0.27403814 0
0 0.27403814 0
4.7311462e-20 0.035077405 1.8780122e-20
4.7311462e-20 0.035077405 2.6003247e-20
4.7311462e-20 0.035077405 3.3226371e-20
4.7311462e-20 0.035077405 4.0449495e-20
4.7311462e-20 0.035077405 4.7672619e-20
-5.5130273e-20 0.37307204 -2.2219806e-20
-5.5130273e-20 0.37307204 -3.0604638e-20
-5.5130273e-20 0.37307204 -3.8989471e-20
-5.5130273e-20 0.37307204 -4.7374303e-20
-5.5130273e-20 0.37307204 -5.5759136e-20
0 0.49306108 0
0 0.49306108 0
0 0.49306108 0
0 0.49306108 0
0 0.49306108 0
VECTORS q double
1 -1.0622862e-15 9.3125593e-33
1 -1.0622862e-15 1.3112871e-32
1 -1.0622862e-15 1.6546814e-32
1 -1.0622862e-15 2.0541685e-32
1 -1.0622862e-15 2.3855699e-32
1 0 0
1 0 0
1 0 0
1 0 0
1 0 0
1 -1.2088402e-15 1.981713e-32
1 -1.2088402e-15 2.7450501e-32
1 -1.2088402e-15 3.4913136e-32
1 -1.2088402e-15 4.2608472e-32
1 -1.2088402e-15 5.0330916e-32
1 5.124919e-15 1.4115979e-31
1 5.124919e-15 1.9432474e-31
1 5.124919e-15 2.4775472e-31
1 5.124919e-15 3.0096265e-31
1 5.124919e-15 3.5403066e-31
1 1.3133938e-17 1.3173915e-35
1 1.3133938e-17 1.8053143e-35
1 1.3133938e-17 2.2932371e-35
1 1.3133938e-17 2.7811599e-35
1 1.3133938e-17 3.2690827e-35
1 -1.4872007e-15 1.3038787e-32
1 -1.4872007e-15 1.8413678e-32
1 -1.4872007e-15 2.2896006e-32
1 -1.4872007e-15 2.8500189e-32
1 -1.4872007e-15 3.3180542e-32
1 0 0
1 0 0
1 0 0
1 0 0
1 0 0
1 -1.6828952e-15 2.7597123e-32
1 -1.6828952e-15 3.8204509e-32
1 -1.6828952e-15 4.8618185e-32
1 -1.6828952e-15 5.9392972e-32
1 -1.6828952e-15 7.013397e-32
1 7.1151789e-15 1.9597949e-31
1 7.1151789e-15 2.6979951e-31
1 7.1151789e-15 3.439478e-31
1 7.1151789e-15 4.1790591e-31
1 7.1151789e-15 4.9163771e-31
1 1.8185453e-17 1.8240806e-35
1 1.8185453e-17 2.499666e-35
1 1.8185453e-17 3.1752514e-35
1 1.8185453e-17 3.8508368e-35
1 1.8185453e-17 4.5264222e-35
1 -1.9121152e-15 1.6904644e-32
1 -1.9121152e-15 2.389456e-32
1 -1.9121152e-15 3.0098867e-32
1 -1.9121152e-15 3.7427435e-32
1 -1.9121152e-15 4.3442349e-32
1 0 0
1 0 0
1 0 0
1 0 0
1 0 0
1 -2.1569502e-15 3.5508897e-32
1 -2.1569502e-15 4.9220588e-32
1 -2.1569502e-15 6.257553e-32
1 -2.1569502e-15 7.6455963e-32
1 -2.1569502e-15 9.033704e-32
1 9.1054387e-15 2.5073959e-31
1 9.1054387e-15 3.4519088e-31
1 9.1054387e-15 4.4006687e-31
1 9.1054387e-15 5.347507e-31
1 9.1054387e-15 6.289849e-31
1 2.3236968e-17 2.3307697e-35
1 2.3236968e-17 3.1940177e-35
1 2.3236968e-17 4.0572657e-35
1 2.3236968e-17 4.9205137e-35
1 2.3236968e-17 5.7837618e-35
1 -2.3370297e-15 2.0350408e-32
1 -2.3370297e-15 2.8732182e-32
1 -2.3370297e-15 3.6292058e-32
1 -2.3370297e-15 4.5118234e-32
1 -2.3370297e-15 5.2161968e-32
1 0 0
1 0 0
1 0 0
1 0 0
1 0 0
1 -2.6310052e-15 4.3210022e-32
1 -2.6310052e-15 5.9742089e-32
1 -2.6310052e-15 7.6126409e-32
1 -2.6310052e-15 9.2887055e-32
1 -2.6310052e-15 1.0986449e-31
1 1.1095699e-14 3.0565185e-31
1 1.1095699e-14 4.2075648e-31
1 1.1095699e-14 5.3647044e-31
1 1.1095699e-14 6.5177117e-31
1 1.1095699e-14 7.6669025e-31
1 2.8288483e-17 2.8374587e-35
1 2.8288483e-17 3.8883694e-35
1 2.8288483e-17 4.93928e-35
1 2.8288483e-17 5.9901906e-35
1 2.8288483e-17 7.0411013e-35
1 -2.7619442e-15 2.4633951e-32
1 -2.7619442e-15 3.4713806e-32
1 -2.7619442e-15 4.3518993e-32
1 -2.7619442e-15 5.4255888e-32
1 -2.7619442e-15 6.3368925e-32
1 0 0
1 0 0
1 0 0
1 0 0
1 0 0
1 -3.1050602e-15 5.1160266e-32
1 -3.1050602e-15 7.0940072e-32
1 -3.1050602e-15 9.0313422e-32
1 -3.1050602e-15 1.1016825e-31
1 -3.1050602e-15 1.3020565e-31
1 1.3085958e-14 3.6033739e-31
1 1.3085958e-14 4.9614533e-31
1 1.3085958e-14 6.3243773e-31
1 1.3085958e-14 7.6843047e-31
1 1.3085958e-14 9.039651e-31
1 3.3339997e-17 3.3441478e-35
1 3.3339997e-17 4.582721e-35
1 3.3339997e-17 5.8212943e-35
1 3.3339997e-17 7.0598675e-35
1 3.3339997e-17 8.2984408e-35
