# vtk DataFile Version 4.0
hesp visualization file
ASCII
DATASET UNSTRUCTURED_GRID
POINTS 125 double
0.5 0.20672374 0.5
0.5 0.20672374 0.7
0.5 0.20672374 0.9
0.5 0.20672374 1.1
0.5 0.20672374 1.3
0.505 0.24400343 0.51
0.505 0.24400343 0.71
0.505 0.24400343 0.91
0.505 0.24400343 1.11
0.505 0.24400343 1.31
0.51 0.20435685 0.52
0.51 0.20435685 0.72
0.51 0.20435685 0.92
0.51 0.20435685 1.12
0.51 0.20435685 1.32
0.515 0.25925147 0.53
0.515 0.25925147 0.73
0.515 0.25925147 0.93
0.515 0.25925147 1.13
0.515 0.25925147 1.33
0.52 0.21836938 0.54
0.52 0.21836938 0.74
0.52 0.21836938 0.94
0.52 0.21836938 1.14
0.52 0.21836938 1.34
0.7 0.20672374 0.5
0.7 0.20672374 0.7
0.7 0.20672374 0.9
0.7 0.20672374 1.1
0.7 0.20672374 1.3
0.705 0.24400343 0.51
0.705 0.24400343 0.71
0.705 0.24400343 0.91
0.705 0.24400343 1.11
0.705 0.24400343 1.31
0.71 0.20435685 0.52
0.71 0.20435685 0.72
0.71 0.20435685 0.92
0.71 0.20435685 1.12
0.71 0.20435685 1.32
0.715 0.25925147 0.53
0.715 0.25925147 0.73
0.715 0.25925147 0.93
0.715 0.25925147 1.13
0.715 0.25925147 1.33
0.72 0.21836938 0.54
0.72 0.21836938 0.74
0.72 0.21836938 0.94
0.72 0.21836938 1.14
0.72 0.21836938 1.34
0.9 0.20672374 0.5
0.9 0.20672374 0.7
0.9 0.20672374 0.9
0.9 0.20672374 1.1
0.9 0.20672374 1.3
0.905 0.24400343 0.51
0.905 0.24400343 0.71
0.905 0.24400343 0.91
0.905 0.24400343 1.11
0.905 0.24400343 1.31
0.91 0.20435685 0.52
0.91 0.20435685 0.72
0.91 0.20435685 0.92
0.91 0.20435685 1.12
0.91 0.20435685 1.32
0.915 0.25925147 0.53
0.915 0.25925147 0.73
0.915 0.25925147 0.93
0.915 0.25925147 1.13
0.915 0.25925147 1.33
0.92 0.21836938 0.54
0.92 0.21836938 0.74
0.92 0.21836938 0.94
0.92 0.21836938 1.14
0.92 0.21836938 1.34
1.1 0.20672374 0.5
1.1 0.20672374 0.7
1.1 0.20672374 0.9
1.1 0.20672374 1.1
1.1 0.20672374 1.3
1.105 0.24400343 0.51
1.105 0.24400343 0.71
1.105 0.24400343 0.91
1.105 0.24400343 1.11
1.105 0.24400343 1.31
1.11 0.20435685 0.52
1.11 0.20435685 0.72
1.11 0.20435685 0.92
1.11 0.20435685 1.12
1.11 0.20435685 1.32
1.115 0.25925147 0.53
1.115 0.25925147 0.73
1.115 0.25925147 0.93
1.115 0.25925147 1.13
1.115 0.25925147 1.33
1.12 0.21836938 0.54
1.12 0.21836938 0.74
1.12 0.21836938 0.94
1.12 0.21836938 1.14
1.12 0.21836938 1.34
1.3 0.20672374 0.5
1.3 0.20672374 0.7
1.3 0.20672374 0.9
1.3 0.20672374 1.1
1.3 0.20672374 1.3
1.305 0.24400343 0.51
1.305 0.24400343 0.71
1.305 0.24400343 0.91
1.305 0.24400343 1.11
1.305 0.24400343 1.31
1.31 0.20435685 0.52
1.31 0.20435685 0.72
1.31 0.20435685 0.92
1.31 0.20435685 1.12
1.31 0.20435685 1.32
1.315 0.25925147 0.53
1.315 0.25925147 0.73
1.315 0.25925147 0.93
1.315 0.25925147 1.13
1.315 0.25925147 1.33
1.32 0.21836938 0.54
1.32 0.21836938 0.74
1.32 0.21836938 0.94
1.32 0.21836938 1.14
1.32 0.21836938 1.34
CELLS 0 0
CELL_TYPES 0
POINT_DATA 125
SCALARS m double
LOOKUP_TABLE default
1
1
1
1
1
1
1
1
1
1
1
1
1
1
1
1
1
1
1
1
1
1
1
1
1
1
1
1
1
1
1
1
1
1
1
1
1
1
1
1
1
1
1
1
1
1
1
1
1
1
1
1
1
1
1
1
1
1
1
1
1
1
1
1
1
1
1
1
1
1
1
1
1
1
1
1
1
1
1
1
1
1
1
1
1
1
1
1
1
1
1
1
1
1
1
1
1
1
1
1
1
1
1
1
1
1
1
1
1
1
1
1
1
1
1
1
1
1
1
1
1
1
1
1
1
SCALARS r double
LOOKUP_TABLE default
0.1
0.1
0.1
0.1
0.1
0.1
0.1
0.1
0.1
0.1
0.1
0.1
0.1
0.1
0.1
0.1
0.1
0.1
0.1
0.1
0.1
0.1
0.1
0.1
0.1
0.1
0.1
0.1
0.1
0.1
0.1
0.1
0.1
0.1
0.1
0.1
0.1
0.1
0.1
0.1
0.1
0.1
0.1
0.1
0.1
0.1
0.1
0.1
0.1
0.1
0.1
0.1
0.1
0.1
0.1
0.1
0.1
0.1
0.1
0.1
0.1
0.1
0.1
0.1
0.1
0.1
0.1
0.1
0.1
0.1
0.1
0.1
0.1
0.1
0.1
0.1
0.1
0.1
0.1
0.1
0.1
0.1
0.1
0.1
0.1
0.1
0.1
0.1
0.1
0.1
0.1
0.1
0.1
0.1
0.1
0.1
0.1
0.1
0.1
0.1
0.1
0.1
0.1
0.1
0.1
0.1
0.1
0.1
0.1
0.1
0.1
0.1
0.1
0.1
0.1
0.1
0.1
0.1
0.1
0.1
0.1
0.1
0.1
0.1
0.1
VECTORS v double
5.4403361e-19 0.35831568 5.4403361e-19
5.4403361e-19 0.35831568 7.6164705e-19
5.4403361e-19 0.35831568 9.7926049e-19
5.4403361e-19 0.35831568 1.1968739e-18
5.4403361e-19 0.35831568 1.4144874e-18
6.2445322e-20 -0.23881983 6.3063593e-20
6.2445322e-20 -0.23881983 8.7794413e-20
6.2445322e-20 -0.23881983 1.1252523e-19
6.2445322e-20 -0.23881983 1.3725605e-19
6.2445322e-20 -0.23881983 1.6198688e-19
4.3453499e-19 0.13728245 4.4305528e-19
4.3453499e-19 0.13728245 6.1346116e-19
4.3453499e-19 0.13728245 7.8386703e-19
4.3453499e-19 0.13728245 9.5427291e-19
4.3453499e-19 0.13728245 1.1246788e-18
-1.415144e-19 -0.12066639 -1.4563617e-19
-1.415144e-19 -0.12066639 -2.0059322e-19
-1.415144e-19 -0.12066639 -2.5555027e-19
-1.415144e-19 -0.12066639 -3.1050732e-19
-1.415144e-19 -0.12066639 -3.6546436e-19
-3.7579791e-20 -0.31624896 -3.9025168e-20
-3.7579791e-20 -0.31624896 -5.3478934e-20
-3.7579791e-20 -0.31624896 -6.79327e-20
-3.7579791e-20 -0.31624896 -8.2386466e-20
-3.7579791e-20 -0.31624896 -9.6840232e-20
7.6164705e-19 0.35831568 5.4403361e-19
7.6164705e-19 0.35831568 7.6164705e-19
7.6164705e-19 0.35831568 9.7926049e-19
7.6164705e-19 0.35831568 1.1968739e-18
7.6164705e-19 0.35831568 1.4144874e-18
8.7176143e-20 -0.23881983 6.3063593e-20
8.7176143e-20 -0.23881983 8.7794413e-20
8.7176143e-20 -0.23881983 1.1252523e-19
8.7176143e-20 -0.23881983 1.3725605e-19
8.7176143e-20 -0.23881983 1.6198688e-19
6.0494086e-19 0.13728245 4.4305528e-19
6.0494086e-19 0.13728245 6.1346116e-19
6.0494086e-19 0.13728245 7.8386703e-19
6.0494086e-19 0.13728245 9.5427291e-19
6.0494086e-19 0.13728245 1.1246788e-18
-1.9647144e-19 -0.12066639 -1.4563617e-19
-1.9647144e-19 -0.12066639 -2.0059322e-19
-1.9647144e-19 -0.12066639 -2.5555027e-19
-1.9647144e-19 -0.12066639 -3.1050732e-19
-1.9647144e-19 -0.12066639 -3.6546436e-19
-5.2033557e-20 -0.31624896 -3.9025168e-20
-5.2033557e-20 -0.31624896 -5.3478934e-20
-5.2033557e-20 -0.31624896 -6.79327e-20
-5.2033557e-20 -0.31624896 -8.2386466e-20
-5.2033557e-20 -0.31624896 -9.6840232e-20
9.7926049e-19 0.35831568 5.4403361e-19
9.7926049e-19 0.35831568 7.6164705e-19
9.7926049e-19 0.35831568 9.7926049e-19
9.7926049e-19 0.35831568 1.1968739e-18
9.7926049e-19 0.35831568 1.4144874e-18
1.1190696e-19 -0.23881983 6.3063593e-20
1.1190696e-19 -0.23881983 8.7794413e-20
1.1190696e-19 -0.23881983 1.1252523e-19
1.1190696e-19 -0.23881983 1.3725605e-19
1.1190696e-19 -0.23881983 1.6198688e-19
7.7534674e-19 0.13728245 4.4305528e-19
7.7534674e-19 0.13728245 6.1346116e-19
7.7534674e-19 0.13728245 7.8386703e-19
7.7534674e-19 0.13728245 9.5427291e-19
7.7534674e-19 0.13728245 1.1246788e-18
-2.5142849e-19 -0.12066639 -1.4563617e-19
-2.5142849e-19 -0.12066639 -2.0059322e-19
-2.5142849e-19 -0.12066639 -2.5555027e-19
-2.5142849e-19 -0.12066639 -3.1050732e-19
-2.5142849e-19 -0.12066639 -3.6546436e-19
-6.6487323e-20 -0.31624896 -3.9025168e-20
-6.6487323e-20 -0.31624896 -5.3478934e-20
-6.6487323e-20 -0.31624896 -6.79327e-20
-6.6487323e-20 -0.31624896 -8.2386466e-20
-6.6487323e-20 -0.31624896 -9.6840232e-20
1.1968739e-18 0.35831568 5.4403361e-19
1.1968739e-18 0.35831568 7.6164705e-19
1.1968739e-18 0.35831568 9.7926049e-19
1.1968739e-18 0.35831568 1.1968739e-18
1.1968739e-18 0.35831568 1.4144874e-18
1.3663778e-19 -0.23881983 6.3063593e-20
1.3663778e-19 -0.23881983 8.7794413e-20
1.3663778e-19 -0.23881983 1.1252523e-19
1.3663778e-19 -0.23881983 1.3725605e-19
1.3663778e-19 -0.23881983 1.6198688e-19
9.4575262e-19 0.13728245 4.4305528e-19
9.4575262e-19 0.13728245 6.1346116e-19
9.4575262e-19 0.13728245 7.8386703e-19
9.4575262e-19 0.13728245 9.5427291e-19
9.4575262e-19 0.13728245 1.1246788e-18
-3.0638554e-19 -0.12066639 -1.4563617e-19
-3.0638554e-19 -0.12066639 -2.0059322e-19
-3.0638554e-19 -0.12066639 -2.5555027e-19
-3.0638554e-19 -0.12066639 -3.1050732e-19
-3.0638554e-19 -0.12066639 -3.6546436e-19
-8.0941089e-20 -0.31624896 -3.9025168e-20
-8.0941089e-20 -0.31624896 -5.3478934e-20
-8.0941089e-20 -0.31624896 -6.79327e-20
-8.0941089e-20 -0.31624896 -8.2386466e-20
-8.0941089e-20 -0.31624896 -9.6840232e-20
1.4144874e-18 0.35831568 5.4403361e-19
1.4144874e-18 0.35831568 7.6164705e-19
1.4144874e-18 0.35831568 9.7926049e-19
1.4144874e-18 0.35831568 1.1968739e-18
1.4144874e-18 0.35831568 1.4144874e-18
1.613686e-19 -0.23881983 6.3063593e-20
1.613686e-19 -0.23881983 8.7794413e-20
1.613686e-19 -0.23881983 1.1252523e-19
1.613686e-19 -0.23881983 1.3725605e-19
1.613686e-19 -0.23881983 1.6198688e-19
1.1161585e-18 0.13728245 4.4305528e-19
1.1161585e-18 0.13728245 6.1346116e-19
1.1161585e-18 0.13728245 7.8386703e-19
1.1161585e-18 0.13728245 9.5427291e-19
1.1161585e-18 0.13728245 1.1246788e-18
-3.6134258e-19 -0.12066639 -1.4563617e-19
-3.6134258e-19 -0.12066639 -2.0059322e-19
-3.6134258e-19 -0.12066639 -2.5555027e-19
-3.6134258e-19 -0.12066639 -3.1050732e-19
-3.6134258e-19 -0.12066639 -3.6546436e-19
-9.5394855e-20 -0.31624896 -3.9025168e-20
-9.5394855e-20 -0.31624896 -5.3478934e-20
-9.5394855e-20 -0.31624896 -6.79327e-20
-9.5394855e-20 -0.31624896 -8.2386466e-20
-9.5394855e-20 -0.31624896 -9.6840232e-20
VECTORS q double
1 -3.7980409e-13 1.780167e-28
1 -3.7980409e-13 2.492249e-28
1 -3.7980409e-13 3.204262e-28
1 -3.7980409e-13 3.9163884e-28
1 -3.7980409e-13 4.628582e-28
1 -2.0493799e-14 1.3780584e-30
1 -2.0493799e-14 1.9197564e-30
1 -2.0493799e-14 2.4587646e-30
1 -2.0493799e-14 3.0024557e-30
1 -2.0493799e-14 3.5408356e-30
1 -3.1241918e-13 1.188574e-28
1 -3.1241918e-13 1.6457189e-28
1 -3.1241918e-13 2.1024854e-28
1 -3.1241918e-13 2.559797e-28
1 -3.1241918e-13 3.0175897e-28
1 1.6630241e-13 2.4687156e-29
1 1.6630241e-13 3.3979971e-29
1 1.6630241e-13 4.3323692e-29
1 1.6630241e-13 5.2645815e-29
1 1.6630241e-13 6.1932436e-29
1 4.8294896e-14 1.88664e-30
1 4.8294896e-14 2.5722627e-30
1 4.8294896e-14 3.2780216e-30
1 4.8294896e-14 3.9685232e-30
1 4.8294896e-14 4.6615378e-30
1 -5.3172573e-13 2.4922222e-28
1 -5.3172573e-13 3.4891468e-28
1 -5.3172573e-13 4.4860777e-28
1 -5.3172573e-13 5.4829116e-28
1 -5.3172573e-13 6.4798892e-28
1 -2.8610155e-14 1.9229075e-30
1 -2.8610155e-14 2.6791711e-30
1 -2.8610155e-14 3.4313122e-30
1 -2.8610155e-14 4.1904361e-30
1 -2.8610155e-14 4.9402899e-30
1 -4.3493651e-13 1.6545869e-28
1 -4.3493651e-13 2.2909928e-28
1 -4.3493651e-13 2.9269238e-28
1 -4.3493651e-13 3.5634987e-28
1 -4.3493651e-13 4.200682e-28
1 2.3088587e-13 3.4278363e-29
1 2.3088587e-13 4.7182529e-29
1 2.3088587e-13 6.0158282e-29
1 2.3088587e-13 7.3102913e-29
1 2.3088587e-13 8.5997894e-29
1 6.6869855e-14 2.6112797e-30
1 6.6869855e-14 3.5609832e-30
1 6.6869855e-14 4.5402728e-30
1 6.6869855e-14 5.496071e-30
1 6.6869855e-14 6.4535977e-30
1 -6.8364737e-13 3.2043546e-28
1 -6.8364737e-13 4.4859068e-28
1 -6.8364737e-13 5.7677602e-28
1 -6.8364737e-13 7.0495815e-28
1 -6.8364737e-13 8.3314129e-28
1 -3.6726511e-14 2.4695998e-30
1 -3.6726511e-14 3.4409638e-30
1 -3.6726511e-14 4.4066746e-30
1 -3.6726511e-14 5.3810143e-30
1 -3.6726511e-14 6.3459792e-30
1 -5.5745384e-13 2.1211874e-28
1 -5.5745384e-13 2.9370202e-28
1 -5.5745384e-13 3.7521665e-28
1 -5.5745384e-13 4.5683942e-28
1 -5.5745384e-13 5.3853493e-28
1 2.9546932e-13 4.3858752e-29
1 2.9546932e-13 6.0368597e-29
1 2.9546932e-13 7.6968357e-29
1 2.9546932e-13 9.353269e-29
1 2.9546932e-13 1.1002803e-28
1 8.5444815e-14 3.3404312e-30
1 8.5444815e-14 4.5545499e-30
1 8.5444815e-14 5.8055236e-30
1 8.5444815e-14 7.0267918e-30
1 8.5444815e-14 8.2538548e-30
1 -8.3556901e-13 3.9163405e-28
1 -8.3556901e-13 5.4829358e-28
1 -8.3556901e-13 7.0493644e-28
1 -8.3556901e-13 8.6160119e-28
1 -8.3556901e-13 1.0182649e-27
1 -4.4842867e-14 3.0141236e-30
1 -4.4842867e-14 4.199083e-30
1 -4.4842867e-14 5.3771991e-30
1 -4.4842867e-14 6.5671313e-30
1 -4.4842867e-14 7.7439208e-30
1 -6.7997116e-13 2.5875545e-28
1 -6.7997116e-13 3.5826971e-28
1 -6.7997116e-13 4.5771256e-28
1 -6.7997116e-13 5.5728819e-28
1 -6.7997116e-13 6.5693461e-28
1 3.6005278e-13 5.3456015e-29
1 3.6005278e-13 7.3576534e-29
1 3.6005278e-13 9.3809782e-29
1 3.6005278e-13 1.139968e-28
1 3.6005278e-13 1.341023e-28
1 1.0401977e-13 4.0648398e-30
1 1.0401977e-13 5.5425034e-30
1 1.0401977e-13 7.066039e-30
1 1.0401977e-13 8.5517901e-30
1 1.0401977e-13 1.0046203e-29
1 -9.8749064e-13 4.6282705e-28
1 -9.8749064e-13 6.4797014e-28
1 -9.8749064e-13 8.3308226e-28
1 -9.8749064e-13 1.0182399e-27
1 -9.8749064e-13 1.2034164e-27
1 -5.2959223e-14 3.5621679e-30
1 -5.2959223e-14 4.9623084e-30
1 -5.2959223e-14 6.3549219e-30
1 -5.2959223e-14 7.7596983e-30
1 -5.2959223e-14 9.1505747e-30
1 -8.0248849e-13 3.0532659e-28
1 -8.0248849e-13 4.2276292e-28
1 -8.0248849e-13 5.4009374e-28
1 -8.0248849e-13 6.5759791e-28
1 -8.0248849e-13 7.7517516e-28
1 4.2463624e-13 6.3041908e-29
1 4.2463624e-13 8.6785212e-29
1 4.2463624e-13 1.1063876e-28
1 4.2463624e-13 1.3444583e-28
1 4.2463624e-13 1.5816277e-28
1 1.2259473e-13 4.8011039e-30
1 1.2259473e-13 6.5476005e-30
1 1.2259473e-13 8.3433349e-30
1 1.2259473e-13 1.0099761e-29
1 1.2259473e-13 1.1864047e-29
