# vtk DataFile Version 4.0
hesp visualization file
ASCII
DATASET UNSTRUCTURED_GRID
POINTS 125 double
0.5 0.21201679 0.5
0.5 0.21201679 0.7
0.5 0.21201679 0.9
0.5 0.21201679 1.1
0.5 0.21201679 1.3
0.505 0.23698776 0.51
0.505 0.23698776 0.71
0.505 0.23698776 0.91
0.505 0.23698776 1.11
0.505 0.23698776 1.31
0.51 0.214287 0.52
0.51 0.214287 0.72
0.51 0.214287 0.92
0.51 0.214287 1.12
0.51 0.214287 1.32
0.515 0.24906098 0.53
0.515 0.24906098 0.73
0.515 0.24906098 0.93
0.515 0.24906098 1.13
0.515 0.24906098 1.33
0.52 0.23035157 0.54
0.52 0.23035157 0.74
0.52 0.23035157 0.94
0.52 0.23035157 1.14
0.52 0.23035157 1.34
0.7 0.21201679 0.5
0.7 0.21201679 0.7
0.7 0.21201679 0.9
0.7 0.21201679 1.1
0.7 0.21201679 1.3
0.705 0.23698776 0.51
0.705 0.23698776 0.71
0.705 0.23698776 0.91
0.705 0.23698776 1.11
0.705 0.23698776 1.31
0.71 0.214287 0.52
0.71 0.214287 0.72
0.71 0.214287 0.92
0.71 0.214287 1.12
0.71 0.214287 1.32
0.715 0.24906098 0.53
0.715 0.24906098 0.73
0.715 0.24906098 0.93
0.715 0.24906098 1.13
0.715 0.24906098 1.33
0.72 0.23035157 0.54
0.72 0.23035157 0.74
0.72 0.23035157 0.94
0.72 0.23035157 1.14
0.72 0.23035157 1.34
0.9 0.21201679 0.5
0.9 0.21201679 0.7
0.9 0.21201679 0.9
0.9 0.21201679 1.1
0.9 0.21201679 1.3
0.905 0.23698776 0.51
0.905 0.23698776 0.71
0.905 0.23698776 0.91
0.905 0.23698776 1.11
0.905 0.23698776 1.31
0.91 0.214287 0.52
0.91 0.214287 0.72
0.91 0.214287 0.92
0.91 0.214287 1.12
0.91 0.214287 1.32
0.915 0.24906098 0.53
0.915 0.24906098 0.73
0.915 0.24906098 0.93
0.915 0.24906098 1.13
0.915 0.24906098 1.33
0.92 0.23035157 0.54
0.92 0.23035157 0.74
0.92 0.23035157 0.94
0.92 0.23035157 1.14
0.92 0.23035157 1.34
1.1 0.21201679 0.5
1.1 0.21201679 0.7
1.1 0.21201679 0.9
1.1 0.21201679 1.1
1.1 0.21201679 1.3
1.105 0.23698776 0.51
1.105 0.23698776 0.71
1.105 0.23698776 0.91
1.105 0.23698776 1.11
1.105 0.23698776 1.31
1.11 0.214287 0.52
1.11 0.214287 0.72
1.11 0.214287 0.92
1.11 0.214287 1.12
1.11 0.214287 1.32
1.115 0.24906098 0.53
1.115 0.24906098 0.73
1.115 0.24906098 0.93
1.115 0.24906098 1.13
1.115 0.24906098 1.33
1.12 0.23035157 0.54
1.12 0.23035157 0.74
1.12 0.23035157 0.94
1.12 0.23035157 1.14
1.12 0.23035157 1.34
1.3 0.21201679 0.5
1.3 0.21201679 0.7
1.3 0.21201679 0.9
1.3 0.21201679 1.1
1.3 0.21201679 1.3
1.305 0.23698776 0.51
1.305 0.23698776 0.71
1.305 0.23698776 0.91
1.305 0.23698776 1.11
1.305 0.23698776 1.31
1.31 0.214287 0.52
1.31 0.214287 0.72
1.31 0.214287 0.92
1.31 0.214287 1.12
1.31 0.214287 1.32
1.315 0.24906098 0.53
1.315 0.24906098 0.73
1.315 0.24906098 0.93
1.315 0.24906098 1.13
1.315 0.24906098 1.33
1.32 0.23035157 0.54
1.32 0.23035157 0.74
1.32 0.23035157 0.94
1.32 0.23035157 1.14
1.32 0.23035157 1.34
CELLS 0 0
CELL_TYPES 0
POINT_DATA 125
SCALARS m double
LOOKUP_TABLE default
1
1
1
1
1
1
1
1
1
1
1
1
1
1
1
1
1
1
1
1
1
1
1
1
1
1
1
1
1
1
1
1
1
1
1
1
1
1
1
1
1
1
1
1
1
1
1
1
1
1
1
1
1
1
1
1
1
1
1
1
1
1
1
1
1
1
1
1
1
1
1
1
1
1
1
1
1
1
1
1
1
1
1
1
1
1
1
1
1
1
1
1
1
1
1
1
1
1
1
1
1
1
1
1
1
1
1
1
1
1
1
1
1
1
1
1
1
1
1
1
1
1
1
1
1
SCALARS r double
LOOKUP_TABLE default
0.1
0.1
0.1
0.1
0.1
0.1
0.1
0.1
0.1
0.1
0.1
0.1
0.1
0.1
0.1
0.1
0.1
0.1
0.1
0.1
0.1
0.1
0.1
0.1
0.1
0.1
0.1
0.1
0.1
0.1
0.1
0.1
0.1
0.1
0.1
0.1
0.1
0.1
0.1
0.1
0.1
0.1
0.1
0.1
0.1
0.1
0.1
0.1
0.1
0.1
0.1
0.1
0.1
0.1
0.1
0.1
0.1
0.1
0.1
0.1
0.1
0.1
0.1
0.1
0.1
0.1
0.1
0.1
0.1
0.1
0.1
0.1
0.1
0.1
0.1
0.1
0.1
0.1
0.1
0.1
0.1
0.1
0.1
0.1
0.1
0.1
0.1
0.1
0.1
0.1
0.1
0.1
0.1
0.1
0.1
0.1
0.1
0.1
0.1
0.1
0.1
0.1
0.1
0.1
0.1
0.1
0.1
0.1
0.1
0.1
0.1
0.1
0.1
0.1
0.1
0.1
0.1
0.1
0.1
0.1
0.1
0.1
0.1
0.1
0.1
VECTORS v double
3.4245133e-19 -0.3532409 3.4245133e-19
3.4245133e-19 -0.3532409 4.7943186e-19
3.4245133e-19 -0.3532409 6.1641239e-19
3.4245133e-19 -0.3532409 7.5339293e-19
3.4245133e-19 -0.3532409 8.9037346e-19
1.2052268e-20 -0.20348382 1.2171597e-20
1.2052268e-20 -0.20348382 1.6944773e-20
1.2052268e-20 -0.20348382 2.1717948e-20
1.2052268e-20 -0.20348382 2.6491124e-20
1.2052268e-20 -0.20348382 3.1264299e-20
2.8941473e-19 -0.0077029511 2.9508952e-19
2.8941473e-19 -0.0077029511 4.0858549e-19
2.8941473e-19 -0.0077029511 5.2208147e-19
2.8941473e-19 -0.0077029511 6.3557744e-19
2.8941473e-19 -0.0077029511 7.4907341e-19
-1.1758624e-19 -0.077434272 -1.2101108e-19
-1.1758624e-19 -0.077434272 -1.6667564e-19
-1.1758624e-19 -0.077434272 -2.123402e-19
-1.1758624e-19 -0.077434272 -2.5800476e-19
-1.1758624e-19 -0.077434272 -3.0366932e-19
-3.5224363e-20 -0.27138407 -3.6579146e-20
-3.5224363e-20 -0.27138407 -5.0126978e-20
-3.5224363e-20 -0.27138407 -6.3674809e-20
-3.5224363e-20 -0.27138407 -7.7222641e-20
-3.5224363e-20 -0.27138407 -9.0770473e-20
4.7943186e-19 -0.3532409 3.4245133e-19
4.7943186e-19 -0.3532409 4.7943186e-19
4.7943186e-19 -0.3532409 6.1641239e-19
4.7943186e-19 -0.3532409 7.5339293e-19
4.7943186e-19 -0.3532409 8.9037346e-19
1.6825444e-20 -0.20348382 1.2171597e-20
1.6825444e-20 -0.20348382 1.6944773e-20
1.6825444e-20 -0.20348382 2.1717948e-20
1.6825444e-20 -0.20348382 2.6491124e-20
1.6825444e-20 -0.20348382 3.1264299e-20
4.029107e-19 -0.0077029511 2.9508952e-19
4.029107e-19 -0.0077029511 4.0858549e-19
4.029107e-19 -0.0077029511 5.2208147e-19
4.029107e-19 -0.0077029511 6.3557744e-19
4.029107e-19 -0.0077029511 7.4907341e-19
-1.632508e-19 -0.077434272 -1.2101108e-19
-1.632508e-19 -0.077434272 -1.6667564e-19
-1.632508e-19 -0.077434272 -2.123402e-19
-1.632508e-19 -0.077434272 -2.5800476e-19
-1.632508e-19 -0.077434272 -3.0366932e-19
-4.8772194e-20 -0.27138407 -3.6579146e-20
-4.8772194e-20 -0.27138407 -5.0126978e-20
-4.8772194e-20 -0.27138407 -6.3674809e-20
-4.8772194e-20 -0.27138407 -7.7222641e-20
-4.8772194e-20 -0.27138407 -9.0770473e-20
6.1641239e-19 -0.3532409 3.4245133e-19
6.1641239e-19 -0.3532409 4.7943186e-19
6.1641239e-19 -0.3532409 6.1641239e-19
6.1641239e-19 -0.3532409 7.5339293e-19
6.1641239e-19 -0.3532409 8.9037346e-19
2.1598619e-20 -0.20348382 1.2171597e-20
2.1598619e-20 -0.20348382 1.6944773e-20
2.1598619e-20 -0.20348382 2.1717948e-20
2.1598619e-20 -0.20348382 2.6491124e-20
2.1598619e-20 -0.20348382 3.1264299e-20
5.1640667e-19 -0.0077029511 2.9508952e-19
5.1640667e-19 -0.0077029511 4.0858549e-19
5.1640667e-19 -0.0077029511 5.2208147e-19
5.1640667e-19 -0.0077029511 6.3557744e-19
5.1640667e-19 -0.0077029511 7.4907341e-19
-2.0891536e-19 -0.077434272 -1.2101108e-19
-2.0891536e-19 -0.077434272 -1.6667564e-19
-2.0891536e-19 -0.077434272 -2.123402e-19
-2.0891536e-19 -0.077434272 -2.5800476e-19
-2.0891536e-19 -0.077434272 -3.0366932e-19
-6.2320026e-20 -0.27138407 -3.6579146e-20
-6.2320026e-20 -0.27138407 -5.0126978e-20
-6.2320026e-20 -0.27138407 -6.3674809e-20
-6.2320026e-20 -0.27138407 -7.7222641e-20
-6.2320026e-20 -0.27138407 -9.0770473e-20
7.5339293e-19 -0.3532409 3.4245133e-19
7.5339293e-19 -0.3532409 4.7943186e-19
7.5339293e-19 -0.3532409 6.1641239e-19
7.5339293e-19 -0.3532409 7.5339293e-19
7.5339293e-19 -0.3532409 8.9037346e-19
2.6371795e-20 -0.20348382 1.2171597e-20
2.6371795e-20 -0.20348382 1.6944773e-20
2.6371795e-20 -0.20348382 2.1717948e-20
2.6371795e-20 -0.20348382 2.6491124e-20
2.6371795e-20 -0.20348382 3.1264299e-20
6.2990264e-19 -0.0077029511 2.9508952e-19
6.2990264e-19 -0.0077029511 4.0858549e-19
6.2990264e-19 -0.0077029511 5.2208147e-19
6.2990264e-19 -0.0077029511 6.3557744e-19
6.2990264e-19 -0.0077029511 7.4907341e-19
-2.5457992e-19 -0.077434272 -1.2101108e-19
-2.5457992e-19 -0.077434272 -1.6667564e-19
-2.5457992e-19 -0.077434272 -2.123402e-19
-2.5457992e-19 -0.077434272 -2.5800476e-19
-2.5457992e-19 -0.077434272 -3.0366932e-19
-7.5867858e-20 -0.27138407 -3.6579146e-20
-7.5867858e-20 -0.27138407 -5.0126978e-20
-7.5867858e-20 -0.27138407 -6.3674809e-20
-7.5867858e-20 -0.27138407 -7.7222641e-20
-7.5867858e-20 -0.27138407 -9.0770473e-20
8.9037346e-19 -0.3532409 3.4245133e-19
8.9037346e-19 -0.3532409 4.7943186e-19
8.9037346e-19 -0.3532409 6.1641239e-19
8.9037346e-19 -0.3532409 7.5339293e-19
8.9037346e-19 -0.3532409 8.9037346e-19
3.114497e-20 -0.20348382 1.2171597e-20
3.114497e-20 -0.20348382 1.6944773e-20
3.114497e-20 -0.20348382 2.1717948e-20
3.114497e-20 -0.20348382 2.6491124e-20
3.114497e-20 -0.20348382 3.1264299e-20
7.4339861e-19 -0.0077029511 2.9508952e-19
7.4339861e-19 -0.0077029511 4.0858549e-19
7.4339861e-19 -0.0077029511 5.2208147e-19
7.4339861e-19 -0.0077029511 6.3557744e-19
7.4339861e-19 -0.0077029511 7.4907341e-19
-3.0024448e-19 -0.077434272 -1.2101108e-19
-3.0024448e-19 -0.077434272 -1.6667564e-19
-3.0024448e-19 -0.077434272 -2.123402e-19
-3.0024448e-19 -0.077434272 -2.5800476e-19
-3.0024448e-19 -0.077434272 -3.0366932e-19
-8.941569e-20 -0.27138407 -3.6579146e-20
-8.941569e-20 -0.27138407 -5.0126978e-20
-8.941569e-20 -0.27138407 -6.3674809e-20
-8.941569e-20 -0.27138407 -7.7222641e-20
-8.941569e-20 -0.27138407 -9.0770473e-20
VECTORS q double
1 -1.9902658e-13 6.4782764e-29
1 -1.9902658e-13 9.0693835e-29
1 -1.9902658e-13 1.1660282e-28
1 -1.9902658e-13 1.4251981e-28
1 -1.9902658e-13 1.6843511e-28
1 -3.1159118e-15 4.6450367e-32
1 -3.1159118e-15 6.4823046e-32
1 -3.1159118e-15 8.2973076e-32
1 -3.1159118e-15 1.0139695e-31
1 -3.1159118e-15 1.1930559e-31
1 -1.69807e-13 4.4190529e-29
1 -1.69807e-13 6.1188871e-29
1 -1.69807e-13 7.8165958e-29
1 -1.69807e-13 9.5172843e-29
1 -1.69807e-13 1.1220016e-28
1 1.0508554e-13 1.3292705e-29
1 1.0508554e-13 1.8294993e-29
1 1.0508554e-13 2.3327207e-29
1 1.0508554e-13 2.8346676e-29
1 1.0508554e-13 3.3343642e-29
1 3.1660798e-14 1.1682813e-30
1 3.1660798e-14 1.5941745e-30
1 3.1660798e-14 2.0295427e-30
1 3.1660798e-14 2.4588163e-30
1 3.1660798e-14 2.8875612e-30
1 -2.7863721e-13 9.0698456e-29
1 -2.7863721e-13 1.2697588e-28
1 -2.7863721e-13 1.6324772e-28
1 -2.7863721e-13 1.9953235e-28
1 -2.7863721e-13 2.3581051e-28
1 -4.3499362e-15 6.494266e-32
1 -4.3499362e-15 9.0571879e-32
1 -4.3499362e-15 1.1596636e-31
1 -4.3499362e-15 1.4184353e-31
1 -4.3499362e-15 1.6667415e-31
1 -2.3639799e-13 6.1510806e-29
1 -2.3639799e-13 8.5172416e-29
1 -2.3639799e-13 1.0880839e-28
1 -2.3639799e-13 1.3248217e-28
1 -2.3639799e-13 1.5618049e-28
1 1.4589545e-13 1.8456169e-29
1 1.4589545e-13 2.5401702e-29
1 1.4589545e-13 3.2389482e-29
1 1.4589545e-13 3.9360198e-29
1 1.4589545e-13 4.6298268e-29
1 4.3838028e-14 1.6175587e-30
1 4.3838028e-14 2.2077021e-30
1 4.3838028e-14 2.8120998e-30
1 4.3838028e-14 3.4065107e-30
1 4.3838028e-14 3.9991663e-30
1 -3.5824784e-13 1.166156e-28
1 -3.5824784e-13 1.6325278e-28
1 -3.5824784e-13 2.09898e-28
1 -3.5824784e-13 2.5654942e-28
1 -3.5824784e-13 3.0319254e-28
1 -5.5839607e-15 8.3512718e-32
1 -5.5839607e-15 1.1651004e-31
1 -5.5839607e-15 1.4905179e-31
1 -5.5839607e-15 1.823234e-31
1 -5.5839607e-15 2.1450426e-31
1 -3.0298897e-13 7.8871994e-29
1 -3.0298897e-13 1.0921143e-28
1 -3.0298897e-13 1.3951046e-28
1 -3.0298897e-13 1.6986924e-28
1 -3.0298897e-13 2.002591e-28
1 1.8670537e-13 2.3614425e-29
1 1.8670537e-13 3.25009e-29
1 1.8670537e-13 4.1439951e-29
1 1.8670537e-13 5.0359883e-29
1 1.8670537e-13 5.9234618e-29
1 5.6015258e-14 2.0679644e-30
1 5.6015258e-14 2.8219667e-30
1 5.6015258e-14 3.593475e-30
1 5.6015258e-14 4.3523995e-30
1 5.6015258e-14 5.1114541e-30
1 -4.3785847e-13 1.4252362e-28
1 -4.3785847e-13 1.9953104e-28
1 -4.3785847e-13 2.565333e-28
1 -4.3785847e-13 3.1354947e-28
1 -4.3785847e-13 3.7054957e-28
1 -6.8179852e-15 1.0195162e-31
1 -6.8179852e-15 1.4222869e-31
1 -6.8179852e-15 1.8188506e-31
1 -6.8179852e-15 2.2254773e-31
1 -6.8179852e-15 2.6160097e-31
1 -3.6957995e-13 9.6211031e-29
1 -3.6957995e-13 1.3321718e-28
1 -3.6957995e-13 1.7018122e-28
1 -3.6957995e-13 2.0721434e-28
1 -3.6957995e-13 2.4428373e-28
1 2.2751529e-13 2.8782065e-29
1 2.2751529e-13 3.9611839e-29
1 2.2751529e-13 5.0508845e-29
1 2.2751529e-13 6.137831e-29
1 2.2751529e-13 7.2196236e-29
1 6.8192488e-14 2.5170205e-30
1 6.8192488e-14 3.4347765e-30
1 6.8192488e-14 4.3748171e-30
1 6.8192488e-14 5.2984088e-30
1 6.8192488e-14 6.2229279e-30
1 -5.174691e-13 1.6843428e-28
1 -5.174691e-13 2.3580878e-28
1 -5.174691e-13 3.0316575e-28
1 -5.174691e-13 3.7055807e-28
1 -5.174691e-13 4.3794625e-28
1 -8.0520096e-15 1.205229e-31
1 -8.0520096e-15 1.681205e-31
1 -8.0520096e-15 2.1532463e-31
1 -8.0520096e-15 2.6300353e-31
1 -8.0520096e-15 3.0940837e-31
1 -4.3617093e-13 1.1352387e-28
1 -4.3617093e-13 1.5719637e-28
1 -4.3617093e-13 2.0080487e-28
1 -4.3617093e-13 2.4450585e-28
1 -4.3617093e-13 2.882441e-28
1 2.683252e-13 3.3941389e-29
1 2.683252e-13 4.6721863e-29
1 2.683252e-13 5.9566786e-29
1 2.683252e-13 7.2385627e-29
1 2.683252e-13 8.5146213e-29
1 8.0369718e-14 2.9715436e-30
1 8.0369718e-14 4.055876e-30
1 8.0369718e-14 5.1630676e-30
1 8.0369718e-14 6.2544791e-30
1 8.0369718e-14 7.3454669e-30
