# vtk DataFile Version 4.0
hesp visualization file
ASCII
DATASET UNSTRUCTURED_GRID
POINTS 125 double
0.5 0.23531516 0.5
0.5 0.23531516 0.7
0.5 0.23531516 0.9
0.5 0.23531516 1.1
0.5 0.23531516 1.3
0.505 0.26678025 0.51
0.505 0.26678025 0.71
0.505 0.26678025 0.91
0.505 0.26678025 1.11
0.505 0.26678025 1.31
0.51 0.19906596 0.52
0.51 0.19906596 0.72
0.51 0.19906596 0.92
0.51 0.19906596 1.12
0.51 0.19906596 1.32
0.515 0.26205351 0.53
0.515 0.26205351 0.73
0.515 0.26205351 0.93
0.515 0.26205351 1.13
0.515 0.26205351 1.33
0.52 0.21559477 0.54
0.52 0.21559477 0.74
0.52 0.21559477 0.94
0.52 0.21559477 1.14
0.52 0.21559477 1.34
0.7 0.23531516 0.5
0.7 0.23531516 0.7
0.7 0.23531516 0.9
0.7 0.23531516 1.1
0.7 0.23531516 1.3
0.705 0.26678025 0.51
0.705 0.26678025 0.71
0.705 0.26678025 0.91
0.705 0.26678025 1.11
0.705 0.26678025 1.31
0.71 0.19906596 0.52
0.71 0.19906596 0.72
0.71 0.19906596 0.92
0.71 0.19906596 1.12
0.71 0.19906596 1.32
0.715 0.26205351 0.53
0.715 0.26205351 0.73
0.715 0.26205351 0.93
0.715 0.26205351 1.13
0.715 0.26205351 1.33
0.72 0.21559477 0.54
0.72 0.21559477 0.74
0.72 0.21559477 0.94
0.72 0.21559477 1.14
0.72 0.21559477 1.34
0.9 0.23531516 0.5
0.9 0.23531516 0.7
0.9 0.23531516 0.9
0.9 0.23531516 1.1
0.9 0.23531516 1.3
0.905 0.26678025 0.51
0.905 0.26678025 0.71
0.905 0.26678025 0.91
0.905 0.26678025 1.11
0.905 0.26678025 1.31
0.91 0.19906596 0.52
0.91 0.19906596 0.72
0.91 0.19906596 0.92
0.91 0.19906596 1.12
0.91 0.19906596 1.32
0.915 0.26205351 0.53
0.915 0.26205351 0.73
0.915 0.26205351 0.93
0.915 0.26205351 1.13
0.915 0.26205351 1.33
0.92 0.21559477 0.54
0.92 0.21559477 0.74
0.92 0.21559477 0.94
0.92 0.21559477 1.14
0.92 0.21559477 1.34
1.1 0.23531516 0.5
1.1 0.23531516 0.7
1.1 0.23531516 0.9
1.1 0.23531516 1.1
1.1 0.23531516 1.3
1.105 0.26678025 0.51
1.105 0.26678025 0.71
1.105 0.26678025 0.91
1.105 0.26678025 1.11
1.105 0.26678025 1.31
1.11 0.19906596 0.52
1.11 0.19906596 0.72
1.11 0.19906596 0.92
1.11 0.19906596 1.12
1.11 0.19906596 1.32
1.115 0.26205351 0.53
1.115 0.26205351 0.73
1.115 0.26205351 0.93
1.115 0.26205351 1.13
1.115 0.26205351 1.33
1.12 0.21559477 0.54
1.12 0.21559477 0.74
1.12 0.21559477 0.94
1.12 0.21559477 1.14
1.12 0.21559477 1.34
1.3 0.23531516 0.5
1.3 0.23531516 0.7
1.3 0.23531516 0.9
1.3 0.23531516 1.1
1.3 0.23531516 1.3
1.305 0.26678025 0.51
1.305 0.26678025 0.71
1.305 0.26678025 0.91
1.305 0.26678025 1.11
1.305 0.26678025 1.31
1.31 0.19906596 0.52
1.31 0.19906596 0.72
1.31 0.19906596 0.92
1.31 0.19906596 1.12
1.31 0.19906596 1.32
1.315 0.26205351 0.53
1.315 0.26205351 0.73
1.315 0.26205351 0.93
1.315 0.26205351 1.13
1.315 0.26205351 1.33
1.32 0.21559477 0.54
1.32 0.21559477 0.74
1.32 0.21559477 0.94
1.32 0.21559477 1.14
1.32 0.21559477 1.34
CELLS 0 0
CELL_TYPES 0
POINT_DATA 125
SCALARS m double
LOOKUP_TABLE default
1
1
1
1
1
1
1
1
1
1
1
1
1
1
1
1
1
1
1
1
1
1
1
1
1
1
1
1
1
1
1
1
1
1
1
1
1
1
1
1
1
1
1
1
1
1
1
1
1
1
1
1
1
1
1
1
1
1
1
1
1
1
1
1
1
1
1
1
1
1
1
1
1
1
1
1
1
1
1
1
1
1
1
1
1
1
1
1
1
1
1
1
1
1
1
1
1
1
1
1
1
1
1
1
1
1
1
1
1
1
1
1
1
1
1
1
1
1
1
1
1
1
1
1
1
SCALARS r double
LOOKUP_TABLE default
0.1
0.1
0.1
0.1
0.1
0.1
0.1
0.1
0.1
0.1
0.1
0.1
0.1
0.1
0.1
0.1
0.1
0.1
0.1
0.1
0.1
0.1
0.1
0.1
0.1
0.1
0.1
0.1
0.1
0.1
0.1
0.1
0.1
0.1
0.1
0.1
0.1
0.1
0.1
0.1
0.1
0.1
0.1
0.1
0.1
0.1
0.1
0.1
0.1
0.1
0.1
0.1
0.1
0.1
0.1
0.1
0.1
0.1
0.1
0.1
0.1
0.1
0.1
0.1
0.1
0.1
0.1
0.1
0.1
0.1
0.1
0.1
0.1
0.1
0.1
0.1
0.1
0.1
0.1
0.1
0.1
0.1
0.1
0.1
0.1
0.1
0.1
0.1
0.1
0.1
0.1
0.1
0.1
0.1
0.1
0.1
0.1
0.1
0.1
0.1
0.1
0.1
0.1
0.1
0.1
0.1
0.1
0.1
0.1
0.1
0.1
0.1
0.1
0.1
0.1
0.1
0.1
0.1
0.1
0.1
0.1
0.1
0.1
0.1
0.1
VECTORS v double
1.0390602e-18 -0.24976528 1.0390602e-18
1.0390602e-18 -0.24976528 1.4546843e-18
1.0390602e-18 -0.24976528 1.8703084e-18
1.0390602e-18 -0.24976528 2.2859325e-18
1.0390602e-18 -0.24976528 2.7015566e-18
3.6354421e-19 -0.037248667 3.6714366e-19
3.6354421e-19 -0.037248667 5.1112157e-19
3.6354421e-19 -0.037248667 6.5509947e-19
3.6354421e-19 -0.037248667 7.9907738e-19
3.6354421e-19 -0.037248667 9.4305528e-19
9.8123369e-19 -0.00016001181 1.0004736e-18
9.8123369e-19 -0.00016001181 1.3852711e-18
9.8123369e-19 -0.00016001181 1.7700686e-18
9.8123369e-19 -0.00016001181 2.1548661e-18
9.8123369e-19 -0.00016001181 2.5396637e-18
-2.1065001e-19 0.053209789 -2.1678545e-19
-2.1065001e-19 0.053209789 -2.9859128e-19
-2.1065001e-19 0.053209789 -3.8039711e-19
-2.1065001e-19 0.053209789 -4.6220294e-19
-2.1065001e-19 0.053209789 -5.4400877e-19
-1.4395134e-20 0.12986271 -1.4948793e-20
-1.4395134e-20 0.12986271 -2.0485383e-20
-1.4395134e-20 0.12986271 -2.6021973e-20
-1.4395134e-20 0.12986271 -3.1558563e-20
-1.4395134e-20 0.12986271 -3.7095153e-20
1.4546843e-18 -0.24976528 1.0390602e-18
1.4546843e-18 -0.24976528 1.4546843e-18
1.4546843e-18 -0.24976528 1.8703084e-18
1.4546843e-18 -0.24976528 2.2859325e-18
1.4546843e-18 -0.24976528 2.7015566e-18
5.0752212e-19 -0.037248667 3.6714366e-19
5.0752212e-19 -0.037248667 5.1112157e-19
5.0752212e-19 -0.037248667 6.5509947e-19
5.0752212e-19 -0.037248667 7.9907738e-19
5.0752212e-19 -0.037248667 9.4305528e-19
1.3660312e-18 -0.00016001181 1.0004736e-18
1.3660312e-18 -0.00016001181 1.3852711e-18
1.3660312e-18 -0.00016001181 1.7700686e-18
1.3660312e-18 -0.00016001181 2.1548661e-18
1.3660312e-18 -0.00016001181 2.5396637e-18
-2.9245584e-19 0.053209789 -2.1678545e-19
-2.9245584e-19 0.053209789 -2.9859128e-19
-2.9245584e-19 0.053209789 -3.8039711e-19
-2.9245584e-19 0.053209789 -4.6220294e-19
-2.9245584e-19 0.053209789 -5.4400877e-19
-1.9931724e-20 0.12986271 -1.4948793e-20
-1.9931724e-20 0.12986271 -2.0485383e-20
-1.9931724e-20 0.12986271 -2.6021973e-20
-1.9931724e-20 0.12986271 -3.1558563e-20
-1.9931724e-20 0.12986271 -3.7095153e-20
1.8703084e-18 -0.24976528 1.0390602e-18
1.8703084e-18 -0.24976528 1.4546843e-18
1.8703084e-18 -0.24976528 1.8703084e-18
1.8703084e-18 -0.24976528 2.2859325e-18
1.8703084e-18 -0.24976528 2.7015566e-18
6.5150002e-19 -0.037248667 3.6714366e-19
6.5150002e-19 -0.037248667 5.1112157e-19
6.5150002e-19 -0.037248667 6.5509947e-19
6.5150002e-19 -0.037248667 7.9907738e-19
6.5150002e-19 -0.037248667 9.4305528e-19
1.7508287e-18 -0.00016001181 1.0004736e-18
1.7508287e-18 -0.00016001181 1.3852711e-18
1.7508287e-18 -0.00016001181 1.7700686e-18
1.7508287e-18 -0.00016001181 2.1548661e-18
1.7508287e-18 -0.00016001181 2.5396637e-18
-3.7426167e-19 0.053209789 -2.1678545e-19
-3.7426167e-19 0.053209789 -2.9859128e-19
-3.7426167e-19 0.053209789 -3.8039711e-19
-3.7426167e-19 0.053209789 -4.6220294e-19
-3.7426167e-19 0.053209789 -5.4400877e-19
-2.5468314e-20 0.12986271 -1.4948793e-20
-2.5468314e-20 0.12986271 -2.0485383e-20
-2.5468314e-20 0.12986271 -2.6021973e-20
-2.5468314e-20 0.12986271 -3.1558563e-20
-2.5468314e-20 0.12986271 -3.7095153e-20
2.2859325e-18 -0.24976528 1.0390602e-18
2.2859325e-18 -0.24976528 1.4546843e-18
2.2859325e-18 -0.24976528 1.8703084e-18
2.2859325e-18 -0.24976528 2.2859325e-18
2.2859325e-18 -0.24976528 2.7015566e-18
7.9547793e-19 -0.037248667 3.6714366e-19
7.9547793e-19 -0.037248667 5.1112157e-19
7.9547793e-19 -0.037248667 6.5509947e-19
7.9547793e-19 -0.037248667 7.9907738e-19
7.9547793e-19 -0.037248667 9.4305528e-19
2.1356263e-18 -0.00016001181 1.0004736e-18
2.1356263e-18 -0.00016001181 1.3852711e-18
2.1356263e-18 -0.00016001181 1.7700686e-18
2.1356263e-18 -0.00016001181 2.1548661e-18
2.1356263e-18 -0.00016001181 2.5396637e-18
-4.560675e-19 0.053209789 -2.1678545e-19
-4.560675e-19 0.053209789 -2.9859128e-19
-4.560675e-19 0.053209789 -3.8039711e-19
-4.560675e-19 0.053209789 -4.6220294e-19
-4.560675e-19 0.053209789 -5.4400877e-19
-3.1004904e-20 0.12986271 -1.4948793e-20
-3.1004904e-20 0.12986271 -2.0485383e-20
-3.1004904e-20 0.12986271 -2.6021973e-20
-3.1004904e-20 0.12986271 -3.1558563e-20
-3.1004904e-20 0.12986271 -3.7095153e-20
2.7015566e-18 -0.24976528 1.0390602e-18
2.7015566e-18 -0.24976528 1.4546843e-18
2.7015566e-18 -0.24976528 1.8703084e-18
2.7015566e-18 -0.24976528 2.2859325e-18
2.7015566e-18 -0.24976528 2.7015566e-18
9.3945584e-19 -0.037248667 3.6714366e-19
9.3945584e-19 -0.037248667 5.1112157e-19
9.3945584e-19 -0.037248667 6.5509947e-19
9.3945584e-19 -0.037248667 7.9907738e-19
9.3945584e-19 -0.037248667 9.4305528e-19
2.5204238e-18 -0.00016001181 1.0004736e-18
2.5204238e-18 -0.00016001181 1.3852711e-18
2.5204238e-18 -0.00016001181 1.7700686e-18
2.5204238e-18 -0.00016001181 2.1548661e-18
2.5204238e-18 -0.00016001181 2.5396637e-18
-5.3787333e-19 0.053209789 -2.1678545e-19
-5.3787333e-19 0.053209789 -2.9859128e-19
-5.3787333e-19 0.053209789 -3.8039711e-19
-5.3787333e-19 0.053209789 -4.6220294e-19
-5.3787333e-19 0.053209789 -5.4400877e-19
-3.6541494e-20 0.12986271 -1.4948793e-20
-3.6541494e-20 0.12986271 -2.0485383e-20
-3.6541494e-20 0.12986271 -2.6021973e-20
-3.6541494e-20 0.12986271 -3.1558563e-20
-3.6541494e-20 0.12986271 -3.7095153e-20
VECTORS q double
1 -1.3053598e-12 1.2649826e-27
1 -1.3053598e-12 1.770964e-27
1 -1.3053598e-12 2.276948e-27
1 -1.3053598e-12 2.7829584e-27
1 -1.3053598e-12 3.2890491e-27
1 -2.7102249e-13 9.4412658e-29
1 -2.7102249e-13 1.3145696e-28
1 -2.7102249e-13 1.6845008e-28
1 -2.7102249e-13 2.0552628e-28
1 -2.7102249e-13 2.4254697e-28
1 -1.0907098e-12 9.4542334e-28
1 -1.0907098e-12 1.3090394e-27
1 -1.0907098e-12 1.6725918e-27
1 -1.0907098e-12 2.0362738e-27
1 -1.0907098e-12 2.4000934e-27
1 3.9491204e-13 8.2897846e-29
1 3.9491204e-13 1.1412102e-28
1 3.9491204e-13 1.4547926e-28
1 3.9491204e-13 1.7677659e-28
1 3.9491204e-13 2.0799799e-28
1 8.4269728e-14 1.1953413e-30
1 8.4269728e-14 1.5947113e-30
1 8.4269728e-14 2.0679726e-30
1 8.4269728e-14 2.4768798e-30
1 8.4269728e-14 2.9071423e-30
1 -1.8275037e-12 1.7709847e-27
1 -1.8275037e-12 2.479364e-27
1 -1.8275037e-12 3.1879352e-27
1 -1.8275037e-12 3.8962606e-27
1 -1.8275037e-12 4.6047758e-27
1 -3.7835813e-13 1.3178758e-28
1 -3.7835813e-13 1.8350417e-28
1 -3.7835813e-13 2.3514806e-28
1 -3.7835813e-13 2.8688893e-28
1 -3.7835813e-13 3.385724e-28
1 -1.5184392e-12 1.31623e-27
1 -1.5184392e-12 1.8225025e-27
1 -1.5184392e-12 2.328626e-27
1 -1.5184392e-12 2.8349173e-27
1 -1.5184392e-12 3.3413406e-27
1 5.4827594e-13 1.1513027e-28
1 5.4827594e-13 1.5849826e-28
1 5.4827594e-13 2.0205545e-28
1 5.4827594e-13 2.4552053e-28
1 5.4827594e-13 2.8887838e-28
1 1.1668116e-13 1.6457415e-30
1 1.1668116e-13 2.1969785e-30
1 1.1668116e-13 2.854704e-30
1 1.1668116e-13 3.4165651e-30
1 1.1668116e-13 4.0049802e-30
1 -2.3496477e-12 2.2769909e-27
1 -2.3496477e-12 3.1875691e-27
1 -2.3496477e-12 4.0985436e-27
1 -2.3496477e-12 5.009372e-27
1 -2.3496477e-12 5.9203005e-27
1 -4.8569377e-13 1.691911e-28
1 -4.8569377e-13 2.3558173e-28
1 -4.8569377e-13 3.0187263e-28
1 -4.8569377e-13 3.6830144e-28
1 -4.8569377e-13 4.3465246e-28
1 -1.9461685e-12 1.6870713e-27
1 -1.9461685e-12 2.3359764e-27
1 -1.9461685e-12 2.9846677e-27
1 -1.9461685e-12 3.6336968e-27
1 -1.9461685e-12 4.2828648e-27
1 7.0163983e-13 1.4729562e-28
1 7.0163983e-13 2.0277685e-28
1 7.0163983e-13 2.5849408e-28
1 7.0163983e-13 3.1411001e-28
1 7.0163983e-13 3.6957932e-28
1 1.490926e-13 2.1244987e-30
1 1.490926e-13 2.8358983e-30
1 1.490926e-13 3.6788279e-30
1 1.490926e-13 4.4030378e-30
1 1.490926e-13 5.1683069e-30
1 -2.8717916e-12 2.7829625e-27
1 -2.8717916e-12 3.8960433e-27
1 -2.8717916e-12 5.0092911e-27
1 -2.8717916e-12 6.1225161e-27
1 -2.8717916e-12 7.2359025e-27
1 -5.9302941e-13 2.0654469e-28
1 -5.9302941e-13 2.8759247e-28
1 -5.9302941e-13 3.6851882e-28
1 -5.9302941e-13 4.4961814e-28
1 -5.9302941e-13 5.3062103e-28
1 -2.3738979e-12 2.058002e-27
1 -2.3738979e-12 2.8495665e-27
1 -2.3738979e-12 3.6408915e-27
1 -2.3738979e-12 4.4325288e-27
1 -2.3738979e-12 5.2244926e-27
1 8.5500373e-13 1.7954148e-28
1 8.5500373e-13 2.4716409e-28
1 8.5500373e-13 3.1508156e-28
1 8.5500373e-13 3.828655e-28
1 8.5500373e-13 4.5047846e-28
1 1.8150403e-13 2.5760749e-30
1 1.8150403e-13 3.4381985e-30
1 1.8150403e-13 4.4634782e-30
1 1.8150403e-13 5.3406467e-30
1 1.8150403e-13 6.2706121e-30
1 -3.3939355e-12 3.2888626e-27
1 -3.3939355e-12 4.6042698e-27
1 -3.3939355e-12 5.9199074e-27
1 -3.3939355e-12 7.2355083e-27
1 -3.3939355e-12 8.5513316e-27
1 -7.0036505e-13 2.4395765e-28
1 -7.0036505e-13 3.39685e-28
1 -7.0036505e-13 4.3526968e-28
1 -7.0036505e-13 5.3106668e-28
1 -7.0036505e-13 6.2673696e-28
1 -2.8016272e-12 2.4284114e-27
1 -2.8016272e-12 3.3624611e-27
1 -2.8016272e-12 4.2961858e-27
1 -2.8016272e-12 5.2306012e-27
1 -2.8016272e-12 6.1648559e-27
1 1.0083676e-12 2.1174422e-28
1 1.0083676e-12 2.9152426e-28
1 1.0083676e-12 3.7160657e-28
1 1.0083676e-12 4.5154932e-28
1 1.0083676e-12 5.3130407e-28
1 2.1391546e-13 3.0722939e-30
1 2.1391546e-13 4.1043319e-30
1 2.1391546e-13 5.3199481e-30
1 2.1391546e-13 6.3701783e-30
1 2.1391546e-13 7.4773167e-30
