# vtk DataFile Version 4.0
hesp visualization file
ASCII
DATASET UNSTRUCTURED_GRID
POINTS 3 double
4.2559742 0.5465 0
32.081863 -1.8703069 0
3.1571391 0.1 0
CELLS 0 0
CELL_TYPES 0
POINT_DATA 3
SCALARS m double
LOOKUP_TABLE default
1
1
1
SCALARS r double
LOOKUP_TABLE default
0.1
0.1
0.1
VECTORS v double
16.615316 -0.518 0
83.650678 -2.8975066 0
11.231984 0 0
VECTORS q double
0.99994587 0.014714611 0
-nan -nan -nan
1 0 0
