# vtk DataFile Version 4.0
hesp visualization file
ASCII
DATASET UNSTRUCTURED_GRID
POINTS 3 double
0.920011 0.55 0
6.734506 0.25689916 0
0.81684902 0.1 0
CELLS 0 0
CELL_TYPES 0
POINT_DATA 3
SCALARS m double
LOOKUP_TABLE default
1
1
1
SCALARS r double
LOOKUP_TABLE default
0.1
0.1
0.1
VECTORS v double
1.10805 0 0
25.018368 -3.0263219 0
1.1952228 0 0
VECTORS q double
1 0 0
1.099088e+16 -1.6446744e+16 0
1 0 0
