# vtk DataFile Version 4.0
hesp visualization file
ASCII
DATASET UNSTRUCTURED_GRID
POINTS 3 double
5.8682922 0.46383905 0
43.786961 -1.8069095 0
4.2340006 0.1 0
CELLS 0 0
CELL_TYPES 0
POINT_DATA 3
SCALARS m double
LOOKUP_TABLE default
1
1
1
SCALARS r double
LOOKUP_TABLE default
0.1
0.1
0.1
VECTORS v double
18.920877 0.35442455 0
174.98156 4.3650685 0
15.798648 0 0
VECTORS q double
155.50544 30.935059 -0
-nan -nan -nan
1 0 0
