# vtk DataFile Version 4.0
hesp visualization file
ASCII
DATASET UNSTRUCTURED_GRID
POINTS 3 double
0.78205 0.55 0
4.2464725 0.4455 0
0.68062228 0.1 0
CELLS 0 0
CELL_TYPES 0
POINT_DATA 3
SCALARS m double
LOOKUP_TABLE default
1
1
1
SCALARS r double
LOOKUP_TABLE default
0.1
0.1
0.1
VECTORS v double
1.11 0 0
16.610075 -0.666 0
1.0752228 0 0
VECTORS q double
1 0 0
0.99991901 0.017999177 0
1 0 0
