# vtk DataFile Version 4.0
hesp visualization file
ASCII
DATASET UNSTRUCTURED_GRID
POINTS 3 double
0.85045 0.55 0
5.3208664 0.38971406 0
0.74693565 0.1 0
CELLS 0 0
CELL_TYPES 0
POINT_DATA 3
SCALARS m double
LOOKUP_TABLE default
1
1
1
SCALARS r double
LOOKUP_TABLE default
0.1
0.1
0.1
VECTORS v double
1.17 0 0
22.101611 -1.387443 0
1.1352228 0 0
VECTORS q double
1 0 0
-1.3605342 1.8806586 0
1 0 0
