# vtk DataFile Version 4.0
hesp visualization file
ASCII
DATASET UNSTRUCTURED_GRID
POINTS 3 double
6.5175942 0.48645027 0
49.041057 -1.7179528 0
4.70841 0.1 0
CELLS 0 0
CELL_TYPES 0
POINT_DATA 3
SCALARS m double
LOOKUP_TABLE default
1
1
1
SCALARS r double
LOOKUP_TABLE default
0.1
0.1
0.1
VECTORS v double
23.013547 0.86154761 0
190.93149 3.8362979 0
15.828648 0 0
VECTORS q double
70203898 -4.6745279e+08 0
-nan -nan -nan
1 0 0
