# vtk DataFile Version 4.0
hesp visualization file
ASCII
DATASET UNSTRUCTURED_GRID
POINTS 3 double
0.4702 0.55 0
1.5021483 0.45 0
0.38024875 0.1 0
CELLS 0 0
CELL_TYPES 0
POINT_DATA 3
SCALARS m double
LOOKUP_TABLE default
1
1
1
SCALARS r double
LOOKUP_TABLE default
0.1
0.1
0.1
VECTORS v double
0.78 0 0
4.4572601 0 0
0.74522283 0 0
VECTORS q double
1 0 0
1 0 0
1 0 0
