# vtk DataFile Version 4.0
hesp visualization file
ASCII
DATASET UNSTRUCTURED_GRID
POINTS 3 double
2.0944408 0.55 0
20.277211 -1.0177865 0
1.6876505 0.1 0
CELLS 0 0
CELL_TYPES 0
POINT_DATA 3
SCALARS m double
LOOKUP_TABLE default
1
1
1
SCALARS r double
LOOKUP_TABLE default
0.1
0.1
0.1
VECTORS v double
7.3222431 0 0
48.664661 -4.102595 0
4.3345101 0 0
VECTORS q double
1 0 0
-nan -nan -nan
1 0 0
