# vtk DataFile Version 4.0
hesp visualization file
ASCII
DATASET UNSTRUCTURED_GRID
POINTS 3 double
1.0470771 0.55 0
9.3269248 -0.1427178 0
0.92444428 0.1 0
CELLS 0 0
CELL_TYPES 0
POINT_DATA 3
SCALARS m double
LOOKUP_TABLE default
1
1
1
SCALARS r double
LOOKUP_TABLE default
0.1
0.1
0.1
VECTORS v double
3.0998978 0 0
33.874227 -5.3565859 0
1.1510629 0 0
VECTORS q double
1 0 0
5.3589456e+129 3.5811546e+129 -0
1 0 0
