# vtk DataFile Version 4.0
hesp visualization file
ASCII
DATASET UNSTRUCTURED_GRID
POINTS 3 double
0.166 6.0401577 0
0.833 3.2472632 0
0.1 0.96961666 0
CELLS 0 0
CELL_TYPES 0
POINT_DATA 3
SCALARS m double
LOOKUP_TABLE default
1
1
1
SCALARS r double
LOOKUP_TABLE default
0.1
0.1
0.1
VECTORS v double
0 18.308946 0
0 9.3817322 0
0 0.2688002 0
VECTORS q double
1 0 0
1 0 0
1 0 0
