# vtk DataFile Version 4.0
hesp visualization file
ASCII
DATASET UNSTRUCTURED_GRID
POINTS 3 double
3.0947366 0.55 0
26.12417 -1.5100979 0
2.3903156 0.1 0
CELLS 0 0
CELL_TYPES 0
POINT_DATA 3
SCALARS m double
LOOKUP_TABLE default
1
1
1
SCALARS r double
LOOKUP_TABLE default
0.1
0.1
0.1
VECTORS v double
11.181688 0 0
48.784661 -4.102595 0
8.011116 0 0
VECTORS q double
1 0 0
-nan -nan -nan
1 0 0
