# vtk DataFile Version 4.0
hesp visualization file
ASCII
DATASET UNSTRUCTURED_GRID
POINTS 3 double
9.3528576 0.59647976 0
79.712363 -0.60318963 0
7.0973263 0.1 0
CELLS 0 0
CELL_TYPES 0
POINT_DATA 3
SCALARS m double
LOOKUP_TABLE default
1
1
1
SCALARS r double
LOOKUP_TABLE default
0.1
0.1
0.1
VECTORS v double
29.777326 1.5259256 0
277.95168 10.512562 0
24.639419 0 0
VECTORS q double
2.1740269e+137 -1.406915e+138 0
-nan -nan -nan
1 0 0
