# vtk DataFile Version 4.0
hesp visualization file
ASCII
DATASET UNSTRUCTURED_GRID
POINTS 3 double
0.166 5.0715703 0
0.833 2.7743959 0
0.1 0.95366865 0
CELLS 0 0
CELL_TYPES 0
POINT_DATA 3
SCALARS m double
LOOKUP_TABLE default
1
1
1
SCALARS r double
LOOKUP_TABLE default
0.1
0.1
0.1
VECTORS v double
0 14.274758 0
0 7.1293152 0
0 0.2628002 0
VECTORS q double
1 0 0
1 0 0
1 0 0
