# vtk DataFile Version 4.0
hesp visualization file
ASCII
DATASET UNSTRUCTURED_GRID
POINTS 3 double
0.166 1.9173678 0
0.833 1.0123404 0
0.1 0.84534711 0
CELLS 0 0
CELL_TYPES 0
POINT_DATA 3
SCALARS m double
LOOKUP_TABLE default
1
1
1
SCALARS r double
LOOKUP_TABLE default
0.1
0.1
0.1
VECTORS v double
0 4.135478 0
0 1.517326 0
0 0.39111901 0
VECTORS q double
1 0 0
1 0 0
1 0 0
