# vtk DataFile Version 4.0
hesp visualization file
ASCII
DATASET UNSTRUCTURED_GRID
POINTS 3 double
0.166 4.3271867 0
0.833 2.346817 0
0.1 0.93808063 0
CELLS 0 0
CELL_TYPES 0
POINT_DATA 3
SCALARS m double
LOOKUP_TABLE default
1
1
1
SCALARS r double
LOOKUP_TABLE default
0.1
0.1
0.1
VECTORS v double
0 12.403393 0
0 7.1233152 0
0 0.2568002 0
VECTORS q double
1 0 0
1 0 0
1 0 0
