# vtk DataFile Version 4.0
hesp visualization file
ASCII
DATASET UNSTRUCTURED_GRID
POINTS 3 double
0.166 2.4821136 0
0.833 1.3417237 0
0.1 0.88095282 0
CELLS 0 0
CELL_TYPES 0
POINT_DATA 3
SCALARS m double
LOOKUP_TABLE default
1
1
1
SCALARS r double
LOOKUP_TABLE default
0.1
0.1
0.1
VECTORS v double
0 7.099199 0
0 4.1405668 0
0 0.40011901 0
VECTORS q double
1 0 0
1 0 0
1 0 0
