# vtk DataFile Version 4.0
hesp visualization file
ASCII
DATASET UNSTRUCTURED_GRID
POINTS 3 double
1.5428602 0.55 0
14.452209 -0.60104425 0
1.1747093 0.1 0
CELLS 0 0
CELL_TYPES 0
POINT_DATA 3
SCALARS m double
LOOKUP_TABLE default
1
1
1
SCALARS r double
LOOKUP_TABLE default
0.1
0.1
0.1
VECTORS v double
4.2475002 0 0
48.455842 -3.214409 0
4.2145101 0 0
VECTORS q double
1 0 0
-nan -nan -nan
1 0 0
