# vtk DataFile Version 4.0
hesp visualization file
ASCII
DATASET UNSTRUCTURED_GRID
POINTS 3 double
0.166 0.99015423 0
0.833 0.94397745 0
0.1 0.73251141 0
CELLS 0 0
CELL_TYPES 0
POINT_DATA 3
SCALARS m double
LOOKUP_TABLE default
1
1
1
SCALARS r double
LOOKUP_TABLE default
0.1
0.1
0.1
VECTORS v double
0 0.17936189 0
0 0.1835348 0
0 0.36111901 0
VECTORS q double
1 0 0
1 0 0
1 0 0
