# vtk DataFile Version 4.0
hesp visualization file
ASCII
DATASET UNSTRUCTURED_GRID
POINTS 3 double
5.3008792 0.47149785 0
39.081098 -1.8835482 0
3.8328581 0.1 0
CELLS 0 0
CELL_TYPES 0
POINT_DATA 3
SCALARS m double
LOOKUP_TABLE default
1
1
1
SCALARS r double
LOOKUP_TABLE default
0.1
0.1
0.1
VECTORS v double
18.906396 -0.95902339 0
134.34896 0.30480789 0
11.291984 0 0
VECTORS q double
-1.6341635 1.5660974 0
-nan -nan -nan
1 0 0
