# vtk DataFile Version 4.0
hesp visualization file
ASCII
DATASET UNSTRUCTURED_GRID
POINTS 3 double
0.166 3.4243275 0
0.833 1.8393117 0
0.1 0.91537362 0
CELLS 0 0
CELL_TYPES 0
POINT_DATA 3
SCALARS m double
LOOKUP_TABLE default
1
1
1
SCALARS r double
LOOKUP_TABLE default
0.1
0.1
0.1
VECTORS v double
0 9.3509486 0
0 4.1525668 0
0 0.2478002 0
VECTORS q double
1 0 0
1 0 0
1 0 0
