# vtk DataFile Version 4.0
hesp visualization file
ASCII
DATASET UNSTRUCTURED_GRID
POINTS 3 double
0.166 0.90787881 0
0.833 0.822645 0
0.1 0.55208715 0
CELLS 0 0
CELL_TYPES 0
POINT_DATA 3
SCALARS m double
LOOKUP_TABLE default
1
1
1
SCALARS r double
LOOKUP_TABLE default
0.1
0.1
0.1
VECTORS v double
0 0.12536189 0
0 0.273 0
0 0.30711901 0
VECTORS q double
1 0 0
1 0 0
1 0 0
