# vtk DataFile Version 4.0
hesp visualization file
ASCII
DATASET UNSTRUCTURED_GRID
POINTS 3 double
0.166 0.85258 0
0.833 0.75258 0
0.1 0.47281001 0
CELLS 0 0
CELL_TYPES 0
POINT_DATA 3
SCALARS m double
LOOKUP_TABLE default
1
1
1
SCALARS r double
LOOKUP_TABLE default
0.1
0.1
0.1
VECTORS v double
0 0.246 0
0 0.246 0
0 0.28011901 0
VECTORS q double
1 0 0
1 0 0
1 0 0
