# vtk DataFile Version 4.0
hesp visualization file
ASCII
DATASET UNSTRUCTURED_GRID
POINTS 3 double
0.166 1.5455798 0
0.833 0.98472475 0
0.1 0.8105514 0
CELLS 0 0
CELL_TYPES 0
POINT_DATA 3
SCALARS m double
LOOKUP_TABLE default
1
1
1
SCALARS r double
LOOKUP_TABLE default
0.1
0.1
0.1
VECTORS v double
0 4.126478 0
0 0.2045348 0
0 0.38211901 0
VECTORS q double
1 0 0
1 0 0
1 0 0
