# vtk DataFile Version 4.0
hesp visualization file
ASCII
DATASET UNSTRUCTURED_GRID
POINTS 3 double
0.166 0.92780809 0
0.833 0.86472 0
0.1 0.59928 0
CELLS 0 0
CELL_TYPES 0
POINT_DATA 3
SCALARS m double
LOOKUP_TABLE default
1
1
1
SCALARS r double
LOOKUP_TABLE default
0.1
0.1
0.1
VECTORS v double
0 0.14036189 0
0 0.288 0
0 0.32211901 0
VECTORS q double
1 0 0
1 0 0
1 0 0
