# vtk DataFile Version 4.0
hesp visualization file
ASCII
DATASET UNSTRUCTURED_GRID
POINTS 3 double
0.9537025 0.55 0
7.5548669 0.15589608 0
0.85315571 0.1 0
CELLS 0 0
CELL_TYPES 0
POINT_DATA 3
SCALARS m double
LOOKUP_TABLE default
1
1
1
SCALARS r double
LOOKUP_TABLE default
0.1
0.1
0.1
VECTORS v double
1.13805 0 0
28.546105 -3.8344587 0
1.2252228 0 0
VECTORS q double
1 0 0
-3.4574713e+39 -2.3104688e+39 0
1 0 0
