# vtk DataFile Version 4.0
hesp visualization file
ASCII
DATASET UNSTRUCTURED_GRID
POINTS 3 double
0.988294 0.55 0
8.4135071 0.022791033 0
0.89036239 0.1 0
CELLS 0 0
CELL_TYPES 0
POINT_DATA 3
SCALARS m double
LOOKUP_TABLE default
1
1
1
SCALARS r double
LOOKUP_TABLE default
0.1
0.1
0.1
VECTORS v double
1.16805 0 0
28.6974 -5.0474122 0
1.1881429 0 0
VECTORS q double
1 0 0
-9.4700179e+76 1.4171175e+77 0
1 0 0
