# vtk DataFile Version 4.0
hesp visualization file
ASCII
DATASET UNSTRUCTURED_GRID
POINTS 3 double
3.4610971 0.55 0
27.810448 -1.621874 0
2.6310991 0.1 0
CELLS 0 0
CELL_TYPES 0
POINT_DATA 3
SCALARS m double
LOOKUP_TABLE default
1
1
1
SCALARS r double
LOOKUP_TABLE default
0.1
0.1
0.1
VECTORS v double
12.227016 0 0
71.101853 -3.556487 0
8.041116 0 0
VECTORS q double
1 0 0
-nan -nan -nan
1 0 0
