# vtk DataFile Version 4.0
hesp visualization file
ASCII
DATASET UNSTRUCTURED_GRID
POINTS 3 double
8.5928634 0.56398955 0
71.374263 -0.91856649 0
6.4301893 0.1 0
CELLS 0 0
CELL_TYPES 0
POINT_DATA 3
SCALARS m double
LOOKUP_TABLE default
1
1
1
SCALARS r double
LOOKUP_TABLE default
0.1
0.1
0.1
VECTORS v double
23.103547 0.86154761 0
277.92168 10.512562 0
22.222901 0 0
VECTORS q double
4.6180514e+89 7.1362733e+88 -0
-nan -nan -nan
1 0 0
