# vtk DataFile Version 4.0
hesp visualization file
ASCII
DATASET UNSTRUCTURED_GRID
POINTS 3 double
1.1646352 0.55 0
10.410392 -0.28023152 0
0.95942617 0.1 0
CELLS 0 0
CELL_TYPES 0
POINT_DATA 3
SCALARS m double
LOOKUP_TABLE default
1
1
1
SCALARS r double
LOOKUP_TABLE default
0.1
0.1
0.1
VECTORS v double
4.1575002 0 0
40.486862 -4.002307 0
1.1810629 0 0
VECTORS q double
1 0 0
1.5088538e+201 -2.2578902e+201 0
1 0 0
