# vtk DataFile Version 4.0
hesp visualization file
ASCII
DATASET UNSTRUCTURED_GRID
POINTS 3 double
2.5777287 0.55 0
23.198891 -1.2639422 0
1.9532029 0.1 0
CELLS 0 0
CELL_TYPES 0
POINT_DATA 3
SCALARS m double
LOOKUP_TABLE default
1
1
1
SCALARS r double
LOOKUP_TABLE default
0.1
0.1
0.1
VECTORS v double
8.0847978 0 0
48.724661 -4.102595 0
4.9608566 0 0
VECTORS q double
1 0 0
-nan -nan -nan
1 0 0
