# vtk DataFile Version 4.0
hesp visualization file
ASCII
DATASET UNSTRUCTURED_GRID
POINTS 3 double
0.7492 0.55 0
3.8186967 0.45 0
0.6488156 0.1 0
CELLS 0 0
CELL_TYPES 0
POINT_DATA 3
SCALARS m double
LOOKUP_TABLE default
1
1
1
SCALARS r double
LOOKUP_TABLE default
0.1
0.1
0.1
VECTORS v double
1.08 0 0
12.273233 0 0
1.0452228 0 0
VECTORS q double
1 0 0
1 0 0
1 0 0
